ITEM: TIMESTEP
22000
ITEM: NUMBER OF ATOMS
3804
ITEM: BOX BOUNDS ss ss pp
-1.7987331413029221e+01 1.7931088852219158e+01
-1.7886482096376806e+01 1.7924618122185539e+01
-4.7717999999999999e-01 4.3857180000000000e+01
ITEM: ATOMS id type x y z c_peratom
1 1 -5.10972 -16.3112 -0.303544 -2.97302
2 1 -7.19548 -16.0242 1.30064 -2.69954
3 1 -1.78013 -16.3608 -0.342578 -3.12394
4 1 -3.48617 -16.408 1.65935 -2.98687
5 1 0.313636 -17.707 -0.618711 -2.3896
6 1 2.00769 -16.087 -0.564852 -3.15179
7 1 -0.0811939 -16.4632 1.36767 -3.15884
8 1 5.23763 -16.2565 43.6449 -2.94607
9 1 3.69457 -16.2525 1.29796 -3.02356
10 1 7.06761 -16.0287 1.30703 -2.69561
11 1 -12.5862 -12.5117 43.8979 -2.83879
12 1 -10.6944 -14.1379 44.0622 -2.73851
13 1 -8.80916 -12.514 -0.398232 -3.45346
14 1 -8.93168 -14.2479 1.42011 -3.11639
15 1 -10.5728 -12.4428 1.41477 -3.33145
16 1 -6.91079 -14.361 -0.340202 -3.34959
17 1 -5.36678 -12.4585 -0.459462 -3.50388
18 1 -5.14296 -14.3829 1.41735 -3.45972
19 1 -7.21061 -12.4409 1.3783 -3.48453
20 1 -3.51752 -14.4399 43.8794 -3.46444
21 1 -1.71655 -12.6784 44.0033 -3.4742
22 1 -1.79148 -14.6151 1.44213 -3.47404
23 1 -3.48248 -12.6634 1.4225 -3.49779
24 1 0.0838177 -14.5349 -0.209205 -3.5333
25 1 1.84323 -12.5413 -0.521121 -3.49079
26 1 1.95528 -14.4253 1.41892 -3.43921
27 1 0.0264796 -12.5192 1.38658 -3.51592
28 1 3.71594 -14.266 -0.517848 -3.4632
29 1 5.46693 -12.5267 -0.599598 -3.51455
30 1 5.26007 -14.2104 1.3442 -3.45917
31 1 3.56862 -12.4966 1.24115 -3.47479
32 1 7.20201 -14.5101 43.6495 -3.34454
33 1 8.9586 -12.6443 43.7013 -3.41803
34 1 9.06967 -14.3264 1.2342 -3.11517
35 1 7.28044 -12.5068 1.27091 -3.49106
36 1 10.8935 -14.0523 43.8771 -2.70745
37 1 12.6579 -12.3086 -0.511323 -2.85263
38 1 10.8828 -12.5561 1.3577 -3.30755
39 1 -14.1345 -10.6492 44.0849 -2.72119
40 1 -12.49 -8.91744 43.9253 -3.43341
41 1 -12.4841 -10.6768 1.32298 -3.28986
42 1 -14.5263 -8.98054 1.61041 -3.09945
43 1 -10.8299 -10.6254 -0.445252 -3.4907
44 1 -8.94381 -8.91709 -0.491708 -3.53094
45 1 -8.94066 -10.6101 1.51159 -3.48931
46 1 -10.6253 -8.91189 1.49433 -3.52247
47 1 -7.09017 -10.6848 44.0172 -3.489
48 1 -5.30968 -9.04744 -0.41213 -3.52239
49 1 -5.17867 -10.808 1.38988 -3.52936
50 1 -7.10587 -8.92431 1.38927 -3.50992
51 1 -3.40798 -10.7826 -0.416163 -3.51942
52 1 -1.7332 -8.95047 -0.374573 -3.50477
53 1 -1.75788 -10.8083 1.36668 -3.47006
54 1 -3.4465 -9.0072 1.42347 -3.48191
55 1 -0.112732 -10.8375 43.8852 -3.50215
56 1 1.78514 -8.96689 -0.459882 -3.49579
57 1 1.76354 -10.7078 1.45284 -3.51851
58 1 0.057774 -8.99841 1.49146 -3.50262
59 1 3.68173 -10.7542 43.9024 -3.49808
60 1 5.49996 -8.98698 43.7467 -3.52617
61 1 5.45934 -10.8111 1.33887 -3.50625
62 1 3.79112 -9.00592 1.31248 -3.49617
63 1 7.28112 -10.7545 -0.553016 -3.52074
64 1 9.0347 -8.98415 43.8474 -3.48256
65 1 9.04181 -10.8332 1.39415 -3.48573
66 1 7.33088 -8.92244 1.35396 -3.51087
67 1 10.6382 -10.7538 43.8925 -3.47686
68 1 12.6962 -9.06559 43.8307 -3.47746
69 1 12.7128 -10.7224 1.4031 -3.32391
70 1 10.8346 -9.08395 1.36352 -3.51242
71 1 14.6851 -10.5363 -0.394686 -2.62698
72 1 14.5391 -9.07061 1.53788 -3.0753
73 1 -16.2058 -5.34909 43.7157 -3.01141
74 1 -16.4501 -6.97358 1.41311 -2.65097
75 1 -14.4812 -7.16281 -0.474511 -3.36823
76 1 -12.5698 -5.47617 -0.564416 -3.51211
77 1 -12.5737 -7.12527 1.39895 -3.49241
78 1 -14.3898 -5.57011 1.31908 -3.39886
79 1 -10.6627 -7.11341 43.8762 -3.49114
80 1 -9.02141 -5.36701 -0.429274 -3.49504
81 1 -8.90846 -7.18202 1.35525 -3.50693
82 1 -10.6919 -5.43256 1.35388 -3.50281
83 1 -7.09905 -7.16911 -0.456208 -3.50339
84 1 -5.46296 -5.3908 -0.336415 -3.4675
85 1 -5.20842 -7.29761 1.36867 -3.48009
86 1 -7.13802 -5.42168 1.38126 -3.51303
87 1 -3.60029 -7.12178 -0.393371 -3.50712
88 1 -1.68464 -5.36804 -0.616636 -3.47774
89 1 -1.65996 -7.16275 1.36373 -3.48117
90 1 -3.45097 -5.3459 1.25814 -3.52589
91 1 0.0652877 -7.31305 -0.38923 -3.46897
92 1 1.80537 -5.28602 -0.399022 -3.51162
93 1 1.92075 -7.18008 1.41782 -3.51726
94 1 0.0730726 -5.50132 1.29037 -3.49223
95 1 3.62743 -7.2814 -0.621765 -3.50149
96 1 5.42546 -5.41826 43.7122 -3.5124
97 1 5.4706 -7.23483 1.30141 -3.48104
98 1 3.71735 -5.59041 1.3645 -3.48532
99 1 7.26024 -7.14887 43.8413 -3.46406
100 1 9.10286 -5.44328 -0.279958 -3.47099
101 1 9.06652 -7.26763 1.27552 -3.44541
102 1 7.24963 -5.57113 1.30625 -3.48962
103 1 10.9925 -7.20659 -0.447815 -3.53163
104 1 12.5786 -5.27846 -0.520563 -3.48152
105 1 12.7997 -7.27504 1.39791 -3.54202
106 1 10.8636 -5.40029 1.52934 -3.48478
107 1 14.4307 -7.31486 43.7379 -3.31998
108 1 16.0483 -5.38046 -0.551463 -3.01103
109 1 15.9554 -7.04544 1.36306 -2.79055
110 1 14.3529 -5.21522 1.26359 -3.42555
111 1 -16.0913 -2.12363 43.7555 -3.1539
112 1 -16.0685 -3.77614 1.26878 -3.063
113 1 -14.3707 -3.7527 -0.55148 -3.43019
114 1 -12.6111 -1.87413 -0.510884 -3.49097
115 1 -12.673 -3.60478 1.32367 -3.5268
116 1 -14.4309 -1.96967 1.29617 -3.46695
117 1 -10.7523 -3.59991 -0.503004 -3.50461
118 1 -9.09664 -1.94955 -0.39069 -3.49875
119 1 -9.01309 -3.58584 1.50774 -3.50576
120 1 -10.9629 -1.77975 1.37923 -3.49504
121 1 -7.27022 -3.67105 -0.322593 -3.48056
122 1 -5.45279 -1.80588 43.8122 -3.51908
123 1 -5.31581 -3.5662 1.23555 -3.50044
124 1 -7.20281 -1.84146 1.30101 -3.46266
125 1 -3.51237 -3.45688 43.9252 -3.51062
126 1 -1.68138 -1.76105 -0.630464 -3.44451
127 1 -1.56652 -3.5341 1.35971 -3.47457
128 1 -3.4411 -1.67738 1.27207 -3.51348
129 1 -0.0732607 -3.58594 -0.570372 -3.45152
130 1 1.75673 -1.98246 43.9008 -3.50121
131 1 1.84694 -3.57413 1.30874 -3.46927
132 1 0.0478576 -1.86013 1.38624 -3.47803
133 1 3.66962 -3.72297 -0.647924 -3.49004
134 1 5.38286 -1.71277 43.7503 -3.48141
135 1 5.46108 -3.7277 1.34125 -3.50508
136 1 3.73031 -1.97605 1.3304 -3.49811
137 1 7.24521 -3.62213 -0.503324 -3.5167
138 1 9.02894 -1.92882 -0.488219 -3.50074
139 1 9.15742 -3.72727 1.41749 -3.48802
140 1 7.2821 -1.85955 1.30955 -3.5244
141 1 10.9291 -3.60398 43.8742 -3.5042
142 1 12.7711 -1.73525 43.8816 -3.48587
143 1 12.631 -3.41738 1.44482 -3.50436
144 1 10.8476 -1.81736 1.38456 -3.51414
145 1 14.4059 -3.48789 43.8107 -3.43467
146 1 16.2979 -1.8198 -0.508636 -3.13752
147 1 16.357 -3.68499 1.47025 -2.98868
148 1 14.5657 -1.74848 1.28942 -3.48425
149 1 -17.8286 -0.258036 -0.647737 -2.36752
150 1 -16.2123 1.68999 43.9996 -3.15623
151 1 -16.2146 -0.185633 1.28577 -3.22974
152 1 -14.3784 -0.103456 -0.391068 -3.51822
153 1 -12.7093 1.7151 -0.566473 -3.46257
154 1 -12.732 -0.0284658 1.43797 -3.47022
155 1 -14.4413 1.79685 1.27059 -3.41386
156 1 -11.0867 -0.0462699 -0.30503 -3.44078
157 1 -9.28138 1.62879 -0.299423 -3.48146
158 1 -9.06209 -0.0731953 1.45706 -3.53095
159 1 -10.9431 1.72031 1.50074 -3.4926
160 1 -7.19949 -0.0257149 -0.390831 -3.48635
161 1 -5.29385 1.80408 -0.351202 -3.48576
162 1 -5.50014 -0.0994045 1.48988 -3.44081
163 1 -7.21585 1.72826 1.3111 -3.50764
164 1 -3.56645 -0.0186027 -0.503114 -3.51527
165 1 -1.80666 1.82486 44.0259 -3.536
166 1 -1.75441 0.0345583 1.39706 -3.48208
167 1 -3.61907 1.73592 1.38403 -3.49522
168 1 -0.0493318 -0.0564642 43.9397 -3.48923
169 1 1.72038 1.68181 -0.449194 -3.49697
170 1 1.89207 -0.0921649 1.45759 -3.53586
171 1 0.122925 1.68839 1.442 -3.47515
172 1 3.5042 -0.0521139 -0.533787 -3.51234
173 1 5.52357 1.67661 -0.493475 -3.49736
174 1 5.41931 0.0611483 1.37015 -3.5091
175 1 3.58716 1.727 1.26485 -3.45376
176 1 7.26521 -0.0121554 -0.3597 -3.48801
177 1 9.05902 1.66106 43.9161 -3.47185
178 1 9.11662 0.0835719 1.3311 -3.48266
179 1 7.28478 1.78437 1.50278 -3.50522
180 1 10.9621 -0.106389 -0.508723 -3.5284
181 1 12.7743 1.70031 -0.482781 -3.50258
182 1 12.8716 0.0540541 1.37724 -3.47759
183 1 11.1026 1.61688 1.41092 -3.48771
184 1 14.5768 0.0240755 -0.507839 -3.47797
185 1 16.4153 2.0173 -0.500684 -3.15086
186 1 16.1296 0.18785 1.34892 -3.23884
187 1 14.4541 1.87208 1.35365 -3.44265
188 1 17.9573 0.0528278 -0.204453 -2.3364
189 1 -16.1854 5.47235 43.9105 -2.93939
190 1 -16.0853 3.77152 1.39267 -3.03182
191 1 -14.5172 3.62102 43.8531 -3.47254
192 1 -12.6855 5.3898 44.0174 -3.52862
193 1 -12.7458 3.51018 1.45696 -3.51381
194 1 -14.4016 5.5264 1.48304 -3.40772
195 1 -11.0947 3.4685 -0.454896 -3.47698
196 1 -9.14148 5.32665 43.8618 -3.48927
197 1 -9.11351 3.52432 1.23405 -3.46698
198 1 -10.7883 5.40914 1.40999 -3.51788
199 1 -7.34139 3.57507 -0.329555 -3.43464
200 1 -5.44026 5.40876 43.7086 -3.48922
201 1 -5.38871 3.61924 1.23128 -3.49827
202 1 -7.27796 5.28487 1.32307 -3.50477
203 1 -3.60939 3.70093 -0.68516 -3.4421
204 1 -1.79907 5.3378 44.0299 -3.47616
205 1 -1.79081 3.61587 1.36441 -3.50204
206 1 -3.66499 5.40013 1.33683 -3.51448
207 1 0.031901 3.73614 -0.489209 -3.47702
208 1 1.8617 5.40226 43.9143 -3.5162
209 1 1.78966 3.39303 1.38854 -3.4643
210 1 0.0652046 5.31206 1.4334 -3.51386
211 1 3.71215 3.45647 43.9798 -3.48342
212 1 5.49447 5.21185 -0.382976 -3.51216
213 1 5.29198 3.52214 1.52976 -3.50831
214 1 3.52632 5.43294 1.49366 -3.49666
215 1 7.26065 3.38139 -0.533277 -3.49335
216 1 9.20952 5.2595 43.8112 -3.48653
217 1 9.11926 3.3801 1.35987 -3.51412
218 1 7.3014 5.30764 1.37023 -3.52564
219 1 10.9357 3.46608 -0.40517 -3.53317
220 1 12.6718 5.37231 -0.466355 -3.50283
221 1 12.6725 3.60945 1.52773 -3.50929
222 1 10.9304 5.35057 1.37112 -3.53338
223 1 14.3954 3.61405 43.7999 -3.47736
224 1 16.2504 5.36798 43.9762 -2.98017
225 1 16.1132 3.67267 1.34396 -3.0316
226 1 14.4759 5.40031 1.51774 -3.4407
227 1 -15.9904 7.3615 1.85195 -2.71907
228 1 -14.53 7.22495 -0.389203 -3.33679
229 1 -12.7619 8.89058 43.9108 -3.4506
230 1 -12.791 7.22459 1.46741 -3.49292
231 1 -14.4445 9.24475 1.31174 -3.08203
232 1 -10.9113 7.19802 43.8393 -3.50095
233 1 -9.05491 8.91826 -0.520632 -3.51623
234 1 -9.04618 7.19635 1.37382 -3.54717
235 1 -10.9068 8.90821 1.4914 -3.5118
236 1 -7.39465 7.12698 43.8316 -3.50449
237 1 -5.42712 8.84328 -0.390043 -3.50629
238 1 -5.64252 7.13076 1.43678 -3.46073
239 1 -7.21979 9.0187 1.24029 -3.48305
240 1 -3.55533 7.06712 -0.442802 -3.49731
241 1 -1.68938 8.90639 -0.275204 -3.50541
242 1 -1.88777 7.26362 1.4842 -3.45141
243 1 -3.62557 8.91616 1.37033 -3.50877
244 1 0.0371686 7.08422 44.0598 -3.50762
245 1 1.86233 8.79727 43.8909 -3.50135
246 1 1.89907 7.17056 1.53841 -3.4963
247 1 0.0702459 8.89979 1.46363 -3.46651
248 1 3.73437 7.13465 43.8837 -3.5106
249 1 5.49569 8.88086 43.8157 -3.51237
250 1 5.46147 7.03739 1.32134 -3.48491
251 1 3.8404 8.82105 1.41484 -3.49596
252 1 7.26802 7.04125 43.8477 -3.5044
253 1 8.95271 9.04709 -0.602792 -3.51301
254 1 8.98059 7.20625 1.26278 -3.47984
255 1 7.24962 8.96855 1.42812 -3.51704
256 1 10.8243 7.19818 -0.4224 -3.52579
257 1 12.5733 8.99761 -0.533056 -3.46763
258 1 12.6671 7.30386 1.46278 -3.50845
259 1 10.691 8.8676 1.44507 -3.49476
260 1 14.449 7.04522 -0.53036 -3.34263
261 1 16.1422 7.14669 1.35423 -2.74494
262 1 14.3931 8.91824 1.08678 -3.07937
263 1 -14.2314 10.8821 43.618 -2.69377
264 1 -12.5266 12.5922 -0.378766 -2.8358
265 1 -12.5656 10.8497 1.27166 -3.29438
266 1 -10.8866 10.8419 44.0027 -3.4512
267 1 -8.87162 12.3774 43.813 -3.46374
268 1 -9.07016 10.6119 1.37357 -3.49777
269 1 -10.6149 12.6062 1.41945 -3.34314
270 1 -7.09269 10.6979 -0.519353 -3.49156
271 1 -5.33822 12.5865 43.7888 -3.50271
272 1 -5.3635 10.7367 1.4416 -3.4922
273 1 -7.26631 12.3669 1.44372 -3.4906
274 1 -3.58956 10.6864 43.9206 -3.50734
275 1 -1.73543 12.6091 43.8752 -3.51857
276 1 -1.74702 10.8909 1.49014 -3.49777
277 1 -3.58166 12.4514 1.18506 -3.45136
278 1 -0.010346 10.7888 43.9369 -3.49786
279 1 1.73017 12.5427 -0.532279 -3.50841
280 1 1.75166 10.5872 1.25114 -3.49194
281 1 0.0855433 12.5328 1.393 -3.51824
282 1 3.62871 10.5519 43.8261 -3.51754
283 1 5.22827 12.4204 -0.519357 -3.489
284 1 5.27305 10.768 1.39719 -3.46136
285 1 3.54626 12.4298 1.42266 -3.4961
286 1 6.96853 10.804 43.882 -3.47332
287 1 8.87086 12.4992 -0.529951 -3.42319
288 1 8.8775 10.7732 1.26163 -3.50899
289 1 6.98133 12.5375 1.34427 -3.5074
290 1 10.7557 10.7437 -0.507174 -3.49027
291 1 12.602 12.4927 -0.455298 -2.85432
292 1 12.6874 10.6522 1.30023 -3.31795
293 1 10.6072 12.4981 1.11508 -3.23867
294 1 14.3098 10.8305 43.6485 -2.71111
295 1 -10.5521 14.076 43.8633 -2.76445
296 1 -8.79765 14.4498 1.4055 -3.12206
297 1 -7.11917 14.2692 43.8642 -3.39308
298 1 -5.42088 16.095 -0.486303 -2.96401
299 1 -5.40412 14.2834 1.47469 -3.46113
300 1 -6.9014 16.0556 1.26966 -2.69686
301 1 -3.70819 14.4113 43.762 -3.42857
302 1 -1.94292 16.2247 43.8684 -3.12043
303 1 -1.91741 14.3831 1.27013 -3.51944
304 1 -3.582 16.2648 1.31886 -3.01622
305 1 0.0625979 14.434 43.8542 -3.52234
306 1 1.96563 16.1855 43.9735 -3.10461
307 1 1.8941 14.3313 1.36545 -3.48887
308 1 0.0956904 16.0974 1.45415 -3.23641
309 1 3.59147 14.342 43.841 -3.47826
310 1 5.33479 16.2171 -0.442931 -2.99099
311 1 5.30662 14.4068 1.30168 -3.47517
312 1 3.51127 16.3218 1.31997 -2.97889
313 1 7.10053 14.4018 -0.323276 -3.33542
314 1 8.93966 14.3318 1.31627 -3.11225
315 1 7.09818 16.3309 1.2976 -2.59506
316 1 10.572 14.2028 43.8202 -2.71816
317 1 0.00597387 17.7399 44.0311 -2.39069
318 1 -5.46859 -16.297 3.24614 -2.92977
319 1 -7.15338 -16.0066 5.22969 -2.70881
320 1 -1.79214 -16.1527 3.42493 -3.13264
321 1 -3.54966 -16.0167 5.24581 -3.01862
322 1 0.0794107 -17.7095 3.56935 -2.38788
323 1 1.94795 -16.1619 3.03422 -3.09997
324 1 -0.063113 -15.9726 5.10103 -3.17527
325 1 5.43427 -16.0399 3.26911 -3.01369
326 1 3.55123 -16.2251 4.94137 -3.00253
327 1 7.21479 -15.9401 5.01979 -2.723
328 1 -12.6166 -12.3699 3.33536 -2.83572
329 1 -10.6369 -14.1475 3.25432 -2.767
330 1 -8.85568 -12.4869 3.2432 -3.43605
331 1 -8.92325 -14.2774 5.15988 -3.1372
332 1 -10.8148 -12.4052 5.12282 -3.35217
333 1 -7.16428 -14.3944 3.24145 -3.39149
334 1 -5.34522 -12.546 3.28704 -3.51899
335 1 -5.47141 -14.433 5.22782 -3.42682
336 1 -7.27973 -12.5153 5.10972 -3.49114
337 1 -3.57875 -14.4346 3.36793 -3.46715
338 1 -1.76113 -12.6133 3.2646 -3.53696
339 1 -1.86586 -14.2604 5.15599 -3.47043
340 1 -3.73516 -12.6092 5.11739 -3.50751
341 1 0.00289619 -14.3264 3.12432 -3.53002
342 1 1.88439 -12.4965 3.21962 -3.53461
343 1 1.77247 -14.3163 4.92814 -3.4978
344 1 0.0439957 -12.4784 4.98033 -3.48439
345 1 3.5858 -14.3443 3.13163 -3.43008
346 1 5.35317 -12.4354 3.21536 -3.51529
347 1 5.34843 -14.2037 5.00182 -3.4474
348 1 3.58904 -12.4326 5.19169 -3.49484
349 1 7.24368 -14.1679 3.11391 -3.38489
350 1 8.99682 -12.5329 3.20042 -3.41573
351 1 9.02059 -14.1466 5.05164 -3.12833
352 1 7.08483 -12.4993 5.06594 -3.4872
353 1 10.7924 -14.1741 3.36214 -2.71746
354 1 12.5311 -12.4732 3.20484 -2.87814
355 1 10.7463 -12.4501 5.14184 -3.32179
356 1 -14.3668 -10.7027 3.32126 -2.70844
357 1 -12.5515 -8.85357 3.18134 -3.49614
358 1 -12.6385 -10.658 5.05008 -3.29388
359 1 -14.5613 -8.89049 4.83346 -3.10693
360 1 -10.827 -10.784 3.28489 -3.48141
361 1 -8.83102 -8.93299 3.27104 -3.52424
362 1 -8.95808 -10.7891 4.98127 -3.50652
363 1 -10.747 -8.9392 4.92136 -3.50732
364 1 -7.06774 -10.7544 3.19619 -3.52362
365 1 -5.30863 -8.98772 3.13149 -3.51013
366 1 -5.38734 -10.6761 5.2266 -3.49247
367 1 -7.10937 -8.97778 5.17685 -3.51383
368 1 -3.61244 -10.8023 3.40968 -3.49236
369 1 -1.80848 -9.1431 3.19126 -3.49149
370 1 -1.79214 -10.9092 5.26538 -3.52364
371 1 -3.51199 -9.02618 5.04584 -3.49399
372 1 0.0195522 -10.7382 3.33701 -3.46408
373 1 1.77264 -8.90686 3.2586 -3.50789
374 1 1.80118 -10.6778 5.02591 -3.50073
375 1 -0.0637932 -9.03037 5.11819 -3.5241
376 1 3.68981 -10.6679 3.18558 -3.52857
377 1 5.54866 -8.92172 3.32674 -3.48069
378 1 5.42707 -10.6714 5.14774 -3.52793
379 1 3.60894 -8.93516 5.20178 -3.51733
380 1 7.27883 -10.8367 3.15091 -3.50987
381 1 8.97573 -8.93052 3.12925 -3.50952
382 1 8.91404 -10.7827 5.03442 -3.52061
383 1 7.26647 -8.9704 5.07378 -3.52134
384 1 10.8138 -10.7391 3.18607 -3.50874
385 1 12.7159 -9.10038 3.29739 -3.45438
386 1 12.7217 -10.7729 5.07414 -3.29438
387 1 10.5481 -8.87355 4.99918 -3.46148
388 1 14.5941 -10.7538 3.52501 -2.64098
389 1 14.5987 -8.95299 5.26285 -3.11901
390 1 -16.1967 -5.2512 3.21233 -2.99998
391 1 -16.0821 -6.98464 5.04345 -2.77442
392 1 -14.5777 -7.04006 3.2003 -3.30742
393 1 -12.667 -5.36359 3.08735 -3.48757
394 1 -12.6126 -7.07496 4.92699 -3.52288
395 1 -14.3867 -5.23457 4.99028 -3.36549
396 1 -10.8554 -7.09871 3.33145 -3.45213
397 1 -9.01242 -5.48549 3.19328 -3.52355
398 1 -8.95509 -7.1293 5.09301 -3.51443
399 1 -10.8424 -5.20424 5.09744 -3.52008
400 1 -7.01882 -7.14372 3.14901 -3.51208
401 1 -5.15701 -5.32981 3.11193 -3.50287
402 1 -5.22131 -7.35441 5.0771 -3.49883
403 1 -6.96844 -5.38595 4.88963 -3.50773
404 1 -3.44889 -7.16795 3.14506 -3.53674
405 1 -1.81184 -5.33002 3.22711 -3.48874
406 1 -1.78575 -7.21519 5.09474 -3.52439
407 1 -3.54712 -5.25483 4.92778 -3.49148
408 1 -0.080115 -7.13084 3.23721 -3.52033
409 1 1.91372 -5.27956 3.13959 -3.51293
410 1 1.75697 -7.10559 5.13665 -3.51007
411 1 0.079968 -5.46682 5.04438 -3.45959
412 1 3.76541 -7.28512 3.25686 -3.51858
413 1 5.4495 -5.38713 3.1745 -3.528
414 1 5.57378 -7.07508 5.22533 -3.50596
415 1 3.69703 -5.44897 5.11162 -3.52251
416 1 7.18301 -7.19611 3.31321 -3.49264
417 1 9.0325 -5.53579 3.16545 -3.51731
418 1 9.01212 -7.0727 5.11133 -3.47941
419 1 7.24959 -5.3221 5.08245 -3.4749
420 1 10.9482 -7.26659 3.18535 -3.51272
421 1 12.6526 -5.45317 3.18985 -3.50457
422 1 12.6644 -7.27041 5.178 -3.51052
423 1 10.905 -5.47413 4.93971 -3.53179
424 1 14.3782 -7.28625 3.38431 -3.33815
425 1 16.0795 -5.51141 3.31276 -2.98739
426 1 16.2746 -7.0996 5.41534 -2.69061
427 1 14.4527 -5.36354 5.17711 -3.49237
428 1 -16.2609 -1.97739 3.26021 -3.1645
429 1 -16.3273 -3.76309 5.01777 -2.98057
430 1 -14.3025 -3.58755 3.36621 -3.38204
431 1 -12.6977 -1.75993 3.28585 -3.52375
432 1 -12.6744 -3.57036 5.03834 -3.43329
433 1 -14.6245 -1.87256 5.23625 -3.46399
434 1 -10.8442 -3.59101 3.09809 -3.52138
435 1 -8.83379 -1.88911 3.32834 -3.46538
436 1 -8.90509 -3.68506 5.05899 -3.49013
437 1 -10.6251 -1.83834 5.09473 -3.52114
438 1 -7.0164 -3.63676 3.14082 -3.50369
439 1 -5.36534 -1.89145 3.13788 -3.46385
440 1 -5.3925 -3.57325 4.96651 -3.41362
441 1 -7.06435 -1.91171 5.06613 -3.46152
442 1 -3.53095 -3.55815 3.08672 -3.50572
443 1 -1.74283 -1.67816 3.40601 -3.50317
444 1 -1.56586 -3.65963 5.13026 -3.47293
445 1 -3.68532 -1.82892 4.90154 -3.47895
446 1 -0.00978224 -3.57094 3.26485 -3.50657
447 1 1.83185 -1.84715 3.36163 -3.53167
448 1 1.91318 -3.74408 5.10307 -3.49677
449 1 0.0228618 -1.69184 5.11319 -3.48872
450 1 3.6376 -3.60163 3.21793 -3.46936
451 1 5.41075 -1.98497 3.23044 -3.49493
452 1 5.50049 -3.67705 5.0742 -3.51348
453 1 3.64513 -1.95357 5.17751 -3.50721
454 1 7.33707 -3.74023 3.24148 -3.50993
455 1 8.99511 -1.76113 3.2856 -3.5068
456 1 9.14304 -3.64803 5.06701 -3.52032
457 1 7.31339 -1.83264 5.11263 -3.48957
458 1 10.9269 -3.53125 3.32322 -3.52433
459 1 12.8276 -1.6753 3.2602 -3.50401
460 1 12.6834 -3.46477 5.01591 -3.51133
461 1 10.7696 -1.73107 5.05589 -3.49642
462 1 14.4945 -3.64204 3.14166 -3.4699
463 1 16.2269 -1.7276 3.18269 -3.13715
464 1 16.2961 -3.55401 5.02198 -3.01963
465 1 14.5736 -1.72326 5.03622 -3.47061
466 1 -17.754 0.070804 3.10956 -2.55698
467 1 -16.1233 1.85 2.94025 -3.15105
468 1 -16.314 -0.175899 5.22991 -3.17841
469 1 -14.6689 -0.068067 3.19829 -3.52007
470 1 -12.6664 1.6293 3.21216 -3.48793
471 1 -12.54 -0.0735021 5.09278 -3.46579
472 1 -14.5721 1.59005 5.14085 -3.52136
473 1 -10.8661 -0.0343458 3.25904 -3.49652
474 1 -8.87217 1.73049 3.24489 -3.52988
475 1 -9.03089 -0.0230109 5.10621 -3.50397
476 1 -10.8176 1.61274 5.10709 -3.44558
477 1 -7.1814 -0.226146 3.0785 -3.40269
478 1 -5.43979 1.80994 3.09355 -3.52101
479 1 -5.41548 -0.164622 5.07614 -3.46792
480 1 -7.09011 1.71834 5.2007 -3.50858
481 1 -3.64155 -0.0292431 3.18815 -3.51121
482 1 -1.69976 1.71896 3.23435 -3.53236
483 1 -1.98459 0.0313761 5.09127 -3.46029
484 1 -3.79782 1.63521 5.05339 -3.49057
485 1 0.154253 -0.0197599 3.36373 -3.47595
486 1 1.90341 1.69828 3.23495 -3.4962
487 1 1.84608 0.0180796 5.16693 -3.50127
488 1 -0.044762 1.71675 5.09977 -3.50173
489 1 3.71247 -0.166107 3.21957 -3.5175
490 1 5.28681 1.71675 3.28734 -3.51411
491 1 5.58569 -0.146098 5.04251 -3.48908
492 1 3.67517 1.70921 5.17884 -3.49824
493 1 7.25307 -0.0113534 3.29112 -3.51545
494 1 9.26511 1.72611 3.22238 -3.49507
495 1 9.05037 0.108176 5.0909 -3.50399
496 1 7.27791 1.83356 5.08897 -3.52004
497 1 10.8641 -0.134953 3.19499 -3.48714
498 1 12.7571 1.78022 3.26227 -3.53761
499 1 12.5672 -0.0243173 5.13836 -3.51338
500 1 10.8366 1.72952 5.19805 -3.49776
501 1 14.5326 0.0295146 3.32506 -3.48751
502 1 16.2718 1.94967 3.14974 -3.12506
503 1 16.3916 0.185344 5.15505 -3.2174
504 1 14.3956 1.81366 5.26485 -3.45818
505 1 17.8904 -0.0113322 3.19865 -2.35705
506 1 -16.1654 5.46517 3.49139 -3.00684
507 1 -16.1618 3.64628 5.14974 -3.11129
508 1 -14.4214 3.52532 3.17863 -3.43657
509 1 -12.6216 5.39184 3.36379 -3.4652
510 1 -12.5516 3.3298 5.06722 -3.51479
511 1 -14.2498 5.41394 5.03484 -3.45314
512 1 -10.8245 3.55234 3.25929 -3.51415
513 1 -9.13198 5.36652 3.22656 -3.49859
514 1 -9.18853 3.4924 5.07725 -3.50302
515 1 -10.9082 5.32421 5.04666 -3.47929
516 1 -7.23586 3.57458 3.36546 -3.49169
517 1 -5.40244 5.49637 3.25123 -3.48007
518 1 -5.45236 3.58157 5.06497 -3.46812
519 1 -7.26319 5.36611 5.05269 -3.52433
520 1 -3.65178 3.61025 3.3276 -3.51131
521 1 -1.79071 5.38716 3.27045 -3.52637
522 1 -1.86508 3.50838 4.97664 -3.49947
523 1 -3.66127 5.36722 5.06734 -3.4996
524 1 0.207453 3.49675 3.27411 -3.53351
525 1 1.92195 5.46764 3.36849 -3.43907
526 1 1.75692 3.43313 5.29789 -3.50272
527 1 -0.0422258 5.30969 5.12542 -3.49012
528 1 3.45473 3.58091 3.2929 -3.52254
529 1 5.40375 5.31931 3.20353 -3.50824
530 1 5.37291 3.62326 4.97964 -3.47285
531 1 3.71168 5.29374 5.2151 -3.50764
532 1 7.2117 3.53809 3.31675 -3.50433
533 1 9.05367 5.34196 3.22129 -3.51655
534 1 9.11346 3.52907 5.05321 -3.53078
535 1 7.15682 5.3543 5.10175 -3.50931
536 1 10.9393 3.56087 3.2609 -3.51647
537 1 12.7051 5.48472 3.26794 -3.52872
538 1 12.6726 3.61354 5.1477 -3.52685
539 1 10.9267 5.3776 5.08943 -3.51284
540 1 14.5551 3.56352 3.37484 -3.44356
541 1 16.2392 5.41269 3.23541 -2.99984
542 1 16.1379 3.65801 5.2476 -3.04418
543 1 14.4246 5.52531 5.12201 -3.47314
544 1 -16.183 7.2542 5.14696 -2.74559
545 1 -14.2983 7.39668 3.52499 -3.31711
546 1 -12.5836 9.02131 3.24621 -3.44239
547 1 -12.4572 7.38445 5.1165 -3.45846
548 1 -14.3416 9.06836 5.31503 -3.12268
549 1 -10.9163 7.09845 3.24101 -3.46394
550 1 -9.12153 9.05408 3.27027 -3.5083
551 1 -9.23166 7.10989 5.038 -3.50384
552 1 -10.7477 8.99844 5.27361 -3.47365
553 1 -7.20623 7.07992 3.19318 -3.45654
554 1 -5.48238 8.96153 3.32895 -3.50374
555 1 -5.5034 7.20667 5.21493 -3.51489
556 1 -7.26341 8.98745 4.93743 -3.47881
557 1 -3.55707 7.16442 3.27883 -3.5143
558 1 -1.66717 8.99069 3.27016 -3.51774
559 1 -1.79634 7.14662 5.20734 -3.47627
560 1 -3.45073 8.92773 5.0941 -3.4846
561 1 0.0145586 7.06 3.22254 -3.52353
562 1 1.89131 8.98305 3.35251 -3.52699
563 1 1.71268 7.09616 5.15853 -3.49118
564 1 0.112479 8.94098 5.08143 -3.50988
565 1 3.63864 7.1203 3.36273 -3.49375
566 1 5.34642 8.89345 3.43062 -3.44175
567 1 5.43543 7.21444 5.13121 -3.49861
568 1 3.72706 9.02353 5.19532 -3.48003
569 1 7.17178 7.0546 3.21373 -3.53356
570 1 8.90987 8.98249 3.1825 -3.50572
571 1 8.96345 7.19302 5.10957 -3.51986
572 1 7.23322 9.13609 4.95515 -3.4735
573 1 10.7554 7.08663 3.30324 -3.49282
574 1 12.3958 8.97981 3.21236 -3.46297
575 1 12.4794 7.31131 5.03924 -3.46909
576 1 10.6474 8.95462 5.07248 -3.49565
577 1 14.4827 7.32888 3.27494 -3.37555
578 1 16.1623 7.1703 5.08499 -2.68956
579 1 14.409 8.97787 5.11201 -3.11334
580 1 -14.3238 10.7309 3.31308 -2.73381
581 1 -12.6192 12.5066 3.11561 -2.865
582 1 -12.6034 10.9228 5.05238 -3.30952
583 1 -10.8583 10.8132 3.29803 -3.50571
584 1 -8.89341 12.5961 3.17091 -3.42839
585 1 -8.91749 10.8925 5.03065 -3.47655
586 1 -10.7072 12.6 5.00099 -3.3121
587 1 -7.23259 10.7052 3.17011 -3.47533
588 1 -5.38065 12.5335 3.17424 -3.50258
589 1 -5.38379 10.7664 5.0958 -3.5312
590 1 -7.20546 12.6152 4.92978 -3.48881
591 1 -3.72402 10.7564 3.22971 -3.50337
592 1 -1.65697 12.5609 3.21268 -3.45397
593 1 -1.71347 10.872 4.98534 -3.50102
594 1 -3.55539 12.5245 5.1277 -3.46706
595 1 0.0953117 10.6707 3.15019 -3.49015
596 1 1.8612 12.4942 3.18382 -3.52353
597 1 1.7396 10.7455 5.21317 -3.45372
598 1 -0.0227226 12.5564 5.01028 -3.47453
599 1 3.56784 10.7299 3.33569 -3.50945
600 1 5.26886 12.6675 3.18378 -3.52893
601 1 5.4149 10.8485 5.12142 -3.52496
602 1 3.55809 12.6732 5.00749 -3.50869
603 1 7.06435 10.7875 3.23088 -3.50813
604 1 8.77643 12.6031 3.18757 -3.42079
605 1 9.00624 10.9223 5.04411 -3.52833
606 1 7.1354 12.6252 5.05755 -3.52578
607 1 10.6398 10.8682 3.10121 -3.53194
608 1 12.5703 12.3767 2.96742 -2.85854
609 1 12.5657 10.834 4.88928 -3.33596
610 1 10.8028 12.6166 5.01223 -3.31085
611 1 14.3429 10.5815 3.19288 -2.74628
612 1 -10.6402 14.2692 3.34247 -2.71207
613 1 -8.7999 14.4564 5.07304 -3.12718
614 1 -7.08339 14.4697 3.32018 -3.35555
615 1 -5.25036 16.2789 3.19957 -2.99062
616 1 -5.31867 14.3282 5.02901 -3.44661
617 1 -6.87701 16.1667 5.19777 -2.7551
618 1 -3.57298 14.3601 3.28239 -3.47023
619 1 -1.84386 16.165 3.25373 -3.14107
620 1 -1.7941 14.3058 4.9905 -3.46799
621 1 -3.60376 16.0749 4.98613 -3.06851
622 1 -0.042001 14.372 3.16448 -3.49965
623 1 1.81765 16.1623 3.18839 -3.15627
624 1 1.76764 14.4172 5.04485 -3.50229
625 1 -0.173428 16.1109 4.92396 -3.17021
626 1 3.51233 14.405 3.15928 -3.44394
627 1 5.29663 16.1002 3.28397 -3.01559
628 1 5.3345 14.375 5.10593 -3.46423
629 1 3.424 16.3816 5.034 -2.99169
630 1 7.25616 14.3937 3.18499 -3.34157
631 1 9.0356 14.3347 4.95567 -3.1206
632 1 7.12076 16.1302 5.18487 -2.66358
633 1 10.7727 14.0652 2.99455 -2.77832
634 1 -0.0865174 17.855 3.10592 -2.36194
635 1 -5.37691 -16.0911 7.11448 -3.00625
636 1 -7.31251 -15.9429 8.80291 -2.73367
637 1 -1.96821 -16.1991 6.94544 -3.12502
638 1 -3.7476 -16.1316 8.87103 -3.01245
639 1 0.151237 -17.605 6.85555 -2.41262
640 1 1.83856 -16.0458 6.77339 -3.10158
641 1 0.0316191 -16.1169 8.75162 -3.2205
642 1 5.42023 -15.9488 6.70588 -2.99682
643 1 3.50691 -15.9722 8.76057 -3.02416
644 1 7.0899 -15.9865 8.92205 -2.70233
645 1 -12.5477 -12.245 6.92408 -2.90488
646 1 -10.7106 -14.316 6.90115 -2.69839
647 1 -9.05317 -12.5602 6.98444 -3.43744
648 1 -9.01581 -14.3343 8.71285 -3.05914
649 1 -10.8496 -12.5082 8.74784 -3.36578
650 1 -7.39165 -14.2853 7.0335 -3.29103
651 1 -5.57575 -12.5091 6.88298 -3.52135
652 1 -5.47764 -14.1977 8.75101 -3.46083
653 1 -7.33707 -12.4088 8.75393 -3.51283
654 1 -3.64944 -14.3789 7.0907 -3.47396
655 1 -1.74247 -12.5641 7.08024 -3.4581
656 1 -1.8001 -14.4911 8.89506 -3.47792
657 1 -3.56978 -12.4555 8.75129 -3.50515
658 1 -0.187781 -14.3887 6.96302 -3.48039
659 1 1.77045 -12.4411 6.86109 -3.51186
660 1 1.84536 -14.3035 8.62796 -3.4305
661 1 0.114068 -12.6019 8.88743 -3.5087
662 1 3.53244 -14.2184 6.78754 -3.44575
663 1 5.48086 -12.5696 6.85493 -3.50743
664 1 5.3747 -14.3265 8.67017 -3.44992
665 1 3.56452 -12.6135 8.70631 -3.50086
666 1 7.33456 -14.251 6.91308 -3.33859
667 1 8.94787 -12.5205 6.95451 -3.46399
668 1 9.10855 -14.5145 8.87825 -3.077
669 1 7.26339 -12.6362 8.82279 -3.51731
670 1 10.8283 -14.3254 7.04313 -2.66848
671 1 12.2932 -12.6071 7.02871 -2.79322
672 1 10.7515 -12.4811 8.87252 -3.3137
673 1 -14.6642 -10.6973 6.80745 -2.59493
674 1 -12.7015 -8.95732 6.72839 -3.492
675 1 -12.7061 -10.5377 8.70471 -3.32285
676 1 -14.5075 -8.8535 8.59442 -3.11532
677 1 -10.8374 -10.5943 6.81692 -3.48425
678 1 -9.02466 -8.90066 6.90336 -3.48613
679 1 -9.08116 -10.6533 8.76265 -3.50573
680 1 -10.9398 -8.90895 8.8473 -3.45833
681 1 -7.31953 -10.7176 6.96341 -3.50131
682 1 -5.30022 -8.90504 6.96571 -3.48161
683 1 -5.54689 -10.641 8.73708 -3.53258
684 1 -7.36667 -8.95527 8.82414 -3.51448
685 1 -3.64418 -10.7947 6.90848 -3.49915
686 1 -1.75671 -8.96874 7.03095 -3.48614
687 1 -1.78723 -10.8437 8.71401 -3.46913
688 1 -3.59333 -9.01876 8.68504 -3.50639
689 1 0.0472614 -10.712 6.9743 -3.51841
690 1 1.92918 -8.94267 7.0082 -3.51463
691 1 1.89573 -10.8576 8.89125 -3.49469
692 1 0.0261217 -8.95864 8.76408 -3.49165
693 1 3.62171 -10.7256 7.06209 -3.51545
694 1 5.33745 -8.87482 7.00004 -3.52246
695 1 5.44523 -10.8441 8.7853 -3.52438
696 1 3.57036 -8.90638 8.9175 -3.48209
697 1 7.25242 -10.6786 7.0005 -3.5315
698 1 9.00981 -8.90195 6.96431 -3.50827
699 1 8.9986 -10.7812 8.72803 -3.49156
700 1 7.28361 -8.84168 8.76392 -3.5191
701 1 10.8066 -10.8158 7.00571 -3.45337
702 1 12.6106 -8.97306 6.94476 -3.46717
703 1 12.6009 -10.7901 8.92349 -3.34718
704 1 10.8173 -9.02273 8.86418 -3.53894
705 1 14.2288 -10.7571 6.98276 -2.74789
706 1 14.4295 -9.0563 8.83985 -3.13473
707 1 -16.3732 -5.12585 6.87509 -2.9208
708 1 -16.1221 -6.91909 8.61604 -2.74256
709 1 -14.5144 -6.97074 6.83445 -3.34176
710 1 -12.5575 -5.44511 7.00633 -3.45211
711 1 -12.5545 -7.20867 8.71305 -3.47657
712 1 -14.2092 -5.35514 8.7965 -3.43886
713 1 -10.7838 -7.23636 6.86339 -3.5208
714 1 -9.01656 -5.3349 6.75577 -3.44038
715 1 -9.14087 -7.11129 8.71345 -3.5408
716 1 -10.9205 -5.29676 8.67198 -3.48412
717 1 -7.25313 -7.12227 6.97302 -3.52736
718 1 -5.34423 -5.49822 6.88537 -3.49104
719 1 -5.46498 -7.07733 8.77152 -3.52276
720 1 -7.30698 -5.40727 8.89319 -3.46376
721 1 -3.50062 -7.15996 6.95007 -3.50407
722 1 -1.78212 -5.46271 6.92212 -3.51369
723 1 -1.78428 -7.26441 8.87347 -3.508
724 1 -3.55771 -5.39849 8.80798 -3.52383
725 1 -0.0491812 -7.28827 6.87505 -3.49283
726 1 1.94051 -5.30108 6.98489 -3.49046
727 1 1.78605 -7.21616 8.70248 -3.50287
728 1 -0.100651 -5.41925 8.78111 -3.54472
729 1 3.68932 -7.10612 7.04318 -3.47313
730 1 5.30639 -5.30745 6.979 -3.50226
731 1 5.41297 -7.15105 8.78393 -3.49162
732 1 3.56946 -5.25946 8.84656 -3.51528
733 1 7.32236 -7.11116 6.96737 -3.50276
734 1 9.11856 -5.32504 6.92923 -3.49996
735 1 9.00844 -7.04217 8.79744 -3.53311
736 1 7.08591 -5.35191 8.7498 -3.496
737 1 10.8616 -7.16087 6.942 -3.50835
738 1 12.6172 -5.25067 6.88629 -3.53025
739 1 12.5619 -7.05186 8.75558 -3.49171
740 1 10.8735 -5.35794 8.62574 -3.45127
741 1 14.4758 -7.16784 7.07982 -3.37885
742 1 16.3759 -5.44797 7.05512 -2.94562
743 1 16.2757 -7.50987 8.68103 -2.68669
744 1 14.5535 -5.33108 8.70942 -3.45181