ITEM: TIMESTEP
158000
ITEM: NUMBER OF ATOMS
3804
ITEM: BOX BOUNDS ss ss pp
-1.7219340654664716e+01 1.7104233607024643e+01
-1.7559729977823320e+01 1.7664327766384336e+01
-3.4270200000000002e+00 4.6807020000000001e+01
ITEM: ATOMS id type x y z c_peratom
1 1 -5.42673 -14.5598 -2.29224 -2.97639
2 1 -6.94881 -14.6417 -0.234152 -2.73829
3 1 -1.9683 -14.2676 -2.51564 -3.12525
4 1 -3.63435 -14.6017 -0.639716 -3.00918
5 1 0.123115 -16.1 -2.77306 -2.66564
6 1 1.88216 -15.9188 45.849 -3.01164
7 1 -0.0600665 -14.6211 -0.676715 -3.29094
8 1 5.57192 -15.2289 46.2246 -2.87543
9 1 3.84657 -15.7013 -2.41253 -2.92567
10 1 6.8984 -14.1629 0.61863 -2.73557
11 1 -12.8417 -11.1216 -1.90275 -2.84055
12 1 -11.0675 -12.8452 -1.68217 -2.66378
13 1 -9.19464 -11.2311 -2.03806 -3.47545
14 1 -9.00987 -13.0669 -0.320132 -3.09196
15 1 -11.04 -11.2173 -0.036371 -3.29092
16 1 -7.43025 -13.0515 -2.11984 -3.34181
17 1 -5.8189 -11.1391 -2.22023 -3.4918
18 1 -5.42258 -12.7344 -0.344974 -3.46705
19 1 -7.35673 -11.2093 -0.262475 -3.48223
20 1 -3.92932 -12.7432 -2.34158 -3.43081
21 1 -2.01114 -12.7222 45.9596 -3.45078
22 1 -2.01114 -12.6989 -0.583257 -3.48253
23 1 -3.77487 -10.9026 -0.29844 -3.48613
24 1 -0.187963 -14.4144 45.6081 -3.2787
25 1 1.28257 -12.432 45.9119 -3.51427
26 1 1.64544 -14.2436 -2.56901 -3.44754
27 1 -0.322498 -12.4983 -2.4278 -3.44994
28 1 3.3992 -13.9871 45.8175 -3.37943
29 1 5.50958 -12.9555 46.0844 -3.32948
30 1 6.26715 -13.8487 -1.81517 -3.09986
31 1 3.98573 -13.2989 -2.1495 -3.38855
32 1 7.86799 -13.4517 46.5275 -3.04845
33 1 9.57347 -11.6101 46.5177 -3.20126
34 1 8.84647 -12.457 0.806377 -3.05284
35 1 7.69094 -11.9266 -1.57609 -3.32828
36 1 10.2321 -12.2425 -1.21653 -2.70287
37 1 11.8385 -10.4022 -1.29491 -2.86275
38 1 10.3553 -10.6506 0.721776 -3.27505
39 1 -14.608 -9.19176 -1.68482 -2.71384
40 1 -12.876 -7.66732 -1.82381 -3.35066
41 1 -12.7677 -9.45138 0.145134 -3.32271
42 1 -14.697 -7.66197 0.268824 -3.07086
43 1 -10.9889 -9.34976 -1.85844 -3.52155
44 1 -9.1502 -7.66861 -2.10169 -3.50048
45 1 -9.11842 -9.41609 -0.228979 -3.49968
46 1 -10.9338 -7.62921 -0.063199 -3.53118
47 1 -7.49102 -9.43347 -2.02427 -3.45466
48 1 -5.97076 -9.50906 45.9984 -3.52382
49 1 -5.65624 -9.31977 -0.336013 -3.51788
50 1 -7.51754 -7.56891 -0.191215 -3.44279
51 1 -3.95666 -11.0208 45.9877 -3.5353
52 1 -2.31335 -9.13822 45.9002 -3.42685
53 1 -2.21752 -10.9191 -2.44367 -3.48216
54 1 -3.95511 -9.31145 -2.33351 -3.47926
55 1 -0.497974 -10.7529 45.9665 -3.48577
56 1 1.76375 -9.75037 46.3244 -3.4059
57 1 2.06221 -11.5844 -1.82537 -3.47015
58 1 0.174742 -10.1127 -1.8799 -3.49683
59 1 3.56412 -11.2203 46.0871 -3.47804
60 1 5.25595 -9.46125 46.1863 -3.47752
61 1 5.37379 -11.2666 -2.22584 -3.49529
62 1 3.56707 -9.59417 -2.05301 -3.51736
63 1 7.0814 -11.0297 45.9704 -3.48463
64 1 8.84941 -9.06674 45.8854 -3.47717
65 1 9.43997 -10.0182 -1.83248 -3.40636
66 1 7.1017 -9.49004 -2.07855 -3.45023
67 1 11.3102 -9.79008 46.5147 -3.24985
68 1 12.9413 -7.8899 46.5461 -3.2353
69 1 12.0002 -8.81798 0.654364 -3.25743
70 1 11.0437 -8.21235 -1.7338 -3.42367
71 1 13.5769 -8.67125 -1.40748 -2.69552
72 1 13.6751 -7.04786 0.686431 -3.05374
73 1 -16.671 -4.43357 -1.77179 -2.75158
74 1 -16.4879 -5.75292 0.2474 -2.71702
75 1 -14.7875 -6.10365 -1.9995 -3.31101
76 1 -12.8644 -4.1765 -1.9071 -3.54677
77 1 -12.9596 -5.97316 -0.00895335 -3.49582
78 1 -14.6292 -4.09382 0.0879375 -3.49333
79 1 -11.1263 -6.02713 -1.89149 -3.50589
80 1 -9.45595 -5.92311 46.137 -3.49092
81 1 -9.11455 -5.85491 -0.104982 -3.47079
82 1 -11.0905 -4.26347 -0.0411782 -3.4643
83 1 -7.48366 -7.62702 46.1363 -3.5004
84 1 -5.7386 -5.86295 46.2338 -3.41262
85 1 -5.69211 -7.64448 -2.3071 -3.45567
86 1 -7.43389 -5.81365 -2.08546 -3.47558
87 1 -4.13443 -7.61511 46.0341 -3.40338
88 1 -1.97655 -6.40596 46.3681 -3.45882
89 1 -1.63345 -8.35103 -1.83268 -3.52885
90 1 -3.4719 -6.55314 -1.85869 -3.49748
91 1 0.0359573 -8.19755 46.4129 -3.40283
92 1 1.3722 -6.22998 46.4632 -3.44034
93 1 1.55621 -7.91704 -2.00002 -3.43102
94 1 -0.109252 -6.24143 -1.86581 -3.44658
95 1 3.31787 -7.81892 46.1983 -3.53025
96 1 5.01672 -5.77292 46.1827 -3.47578
97 1 5.23804 -7.59274 -2.23958 -3.47295
98 1 3.31201 -6.09602 -2.1426 -3.51138
99 1 6.89639 -7.31638 46.1272 -3.49911
100 1 8.71885 -5.5375 46.1679 -3.48433
101 1 8.73753 -7.57808 -2.3731 -3.48417
102 1 6.90807 -5.70315 -2.06768 -3.48573
103 1 10.468 -7.29039 45.9775 -3.4884
104 1 12.2921 -5.53819 46.2039 -3.45293
105 1 12.9344 -6.34593 -1.71789 -3.33182
106 1 10.4481 -5.84562 -2.14112 -3.50508
107 1 14.6541 -6.00878 46.5194 -3.11185
108 1 16.2792 -4.06352 46.6224 -2.80966
109 1 15.3191 -4.81757 0.688751 -2.67855
110 1 14.5688 -4.60068 -1.72409 -3.18894
111 1 -15.3279 -0.0521252 -2.43219 -3.08641
112 1 -16.7964 -2.82203 0.169649 -2.80046
113 1 -15.0956 -2.59858 -1.87086 -3.27347
114 1 -12.9793 -2.45167 46.4356 -3.41327
115 1 -12.8656 -2.41652 0.0613466 -3.4582
116 1 -14.954 -1.0299 0.0556573 -3.33816
117 1 -11.3387 -4.25915 46.3278 -3.51917
118 1 -9.34535 -2.62028 46.4242 -3.42165
119 1 -9.28667 -4.1205 -1.99362 -3.4238
120 1 -11.0446 -2.54892 -1.8059 -3.43131
121 1 -7.48055 -4.29603 46.2624 -3.42714
122 1 -5.39513 -2.86418 46.6321 -3.50125
123 1 -5.08835 -4.75527 -1.8618 -3.45512
124 1 -7.12485 -3.0677 -1.50624 -3.47465
125 1 -3.46256 -4.58284 46.4044 -3.45713
126 1 -2.07939 -2.46455 46.4091 -3.48353
127 1 -1.93909 -4.48704 -1.84886 -3.48994
128 1 -3.7359 -2.82416 -1.79216 -3.43421
129 1 -0.335921 -4.16542 46.4862 -3.41066
130 1 1.34437 -2.62208 46.3149 -3.37489
131 1 1.4849 -4.22814 -2.0008 -3.49416
132 1 -0.242856 -2.512 -1.87698 -3.5071
133 1 3.10749 -4.10963 46.2696 -3.46858
134 1 4.95589 -2.47832 46.3093 -3.50413
135 1 4.95224 -4.21654 -2.1502 -3.48027
136 1 3.20006 -2.44714 -1.96042 -3.48117
137 1 6.74187 -4.04959 46.1726 -3.48987
138 1 8.59983 -2.25279 46.3058 -3.5222
139 1 8.74531 -4.03468 -2.18911 -3.47175
140 1 6.68643 -2.34331 -2.08852 -3.49309
141 1 10.5854 -3.90916 46.2531 -3.4782
142 1 12.1089 -1.8536 46.2529 -3.50629
143 1 12.2148 -3.97415 -2.14374 -3.49398
144 1 10.3489 -2.10376 -2.18483 -3.46917
145 1 13.9457 -3.53684 46.0488 -3.5103
146 1 15.7083 -1.77279 46.1603 -3.16161
147 1 16.2805 -2.48061 -1.73116 -2.85979
148 1 13.8441 -1.98549 -2.11856 -3.52678
149 1 -16.3095 2.55287 40.7116 -2.73183
150 1 -15.4848 1.47566 45.8036 -2.91227
151 1 -15.0297 1.43616 -0.0331823 -3.15262
152 1 -13.497 -0.0678985 46.066 -3.52133
153 1 -11.5451 1.4861 46.2584 -3.39768
154 1 -13.0566 -1.07759 -1.89214 -3.38314
155 1 -13.2259 1.31246 -2.03831 -3.38514
156 1 -11.0621 -0.843408 46.6003 -3.45106
157 1 -9.25594 0.721192 46.7843 -3.50473
158 1 -8.87368 -1.31456 -1.70005 -3.52218
159 1 -11.0826 0.288672 -1.46078 -3.50719
160 1 -7.29725 -1.18903 46.5506 -3.48566
161 1 -5.72456 0.79079 46.6507 -3.48006
162 1 -5.64567 -1.1487 -1.65382 -3.51253
163 1 -7.32342 0.697083 -1.60921 -3.48481
164 1 -3.88601 -0.81969 46.5724 -3.47234
165 1 -2.12718 0.903537 46.7063 -3.47658
166 1 -2.26906 -0.834554 -1.74295 -3.50026
167 1 -3.98503 0.926107 -1.62549 -3.46604
168 1 -0.350168 -0.714105 46.5508 -3.51836
169 1 1.46748 1.05587 46.5378 -3.50479
170 1 1.481 -0.660982 -1.78834 -3.50827
171 1 -0.278524 1.02712 -1.7173 -3.47363
172 1 3.11797 -0.683667 46.4229 -3.50874
173 1 4.87375 1.14747 46.4882 -3.52246
174 1 4.82485 -0.75542 -1.97431 -3.46705
175 1 3.26594 1.15107 -1.74077 -3.50401
176 1 6.66848 -0.525164 46.3503 -3.49838
177 1 8.2662 1.2537 46.5174 -3.46821
178 1 8.33307 -0.666045 -2.02477 -3.45758
179 1 6.58099 1.11499 -1.73837 -3.47418
180 1 10.1355 -0.339187 46.3476 -3.49804
181 1 11.8198 1.4984 46.5094 -3.48381
182 1 11.9254 -0.238838 -1.99031 -3.50025
183 1 9.93501 1.25588 -1.71939 -3.4599
184 1 13.8443 -0.10059 46.3215 -3.5309
185 1 15.3491 1.89036 46.3931 -3.25703
186 1 15.4763 -0.109954 -1.88206 -3.30402
187 1 13.7045 1.56525 -2.01338 -3.48212
188 1 17.0673 0.0860525 46.5589 -2.57271
189 1 -14.2424 5.20345 45.6233 -2.9917
190 1 -15.2663 2.5791 -2.28298 -2.90155
191 1 -13.5003 2.81005 46.167 -3.34287
192 1 -11.8504 4.86682 46.2887 -3.50753
193 1 -11.4656 2.86456 -1.87615 -3.39635
194 1 -13.5288 4.34823 -2.13777 -3.33051
195 1 -9.89541 3.28858 46.1501 -3.50254
196 1 -8.1178 5.0186 46.1321 -3.45835
197 1 -9.13171 2.41541 -1.57814 -3.4713
198 1 -9.96024 4.7395 -2.01834 -3.46539
199 1 -7.46108 2.52397 46.6949 -3.48507
200 1 -5.89562 4.38681 -3.50234 -3.46889
201 1 -5.86288 2.66358 -1.683 -3.41519
202 1 -7.51419 4.23168 -1.61733 -3.43918
203 1 -4.02678 2.64552 46.6455 -3.54087
204 1 -2.39877 4.48381 46.6979 -3.46779
205 1 -2.25328 2.66942 -1.66657 -3.49321
206 1 -4.16657 4.41785 -1.68664 -3.49962
207 1 -0.441607 2.66974 46.7353 -3.48473
208 1 1.23356 4.59865 46.5518 -3.48377
209 1 1.44488 2.93927 -1.77934 -3.50797
210 1 -0.375697 4.57237 -1.73498 -3.46986
211 1 3.12966 3.04662 46.4119 -3.48279
212 1 4.79288 4.80914 46.4579 -3.47067
213 1 4.90091 2.98045 -1.83112 -3.52778
214 1 3.06178 4.8219 -1.72016 -3.50519
215 1 6.64891 3.19465 46.4189 -3.48881
216 1 8.26398 5.05014 46.3985 -3.48597
217 1 8.12605 2.88883 -1.74834 -3.43841
218 1 6.60624 4.87351 -1.75152 -3.52904
219 1 9.87265 3.08792 46.4141 -3.51239
220 1 11.5302 5.01473 46.4709 -3.47719
221 1 11.6681 3.17221 -1.87041 -3.51518
222 1 9.80329 4.91009 -1.87529 -3.50631
223 1 13.3921 3.30074 46.3299 -3.45108
224 1 15.4861 4.92018 46.3998 -2.94314
225 1 15.2533 3.45455 -1.94508 -3.12231
226 1 13.3669 5.06031 -2.07871 -3.44806
227 1 -14.0006 6.598 -2.57423 -2.86298
228 1 -12.5084 7.19553 45.6057 -3.32384
229 1 -10.716 8.995 45.8014 -3.42568
230 1 -11.7322 6.43928 -2.00083 -3.40293
231 1 -12.4422 8.84 -2.61941 -3.15649
232 1 -9.99493 6.6314 46.2268 -3.51733
233 1 -8.22237 8.56509 46.2285 -3.5068
234 1 -8.05929 6.67034 -2.17766 -3.48226
235 1 -9.96489 8.34352 -2.02849 -3.51102
236 1 -6.37983 6.81041 46.1478 -3.51726
237 1 -4.74951 8.64889 46.2276 -3.52499
238 1 -5.88632 6.09492 -1.48791 -3.46304
239 1 -6.34316 8.53848 -2.00208 -3.48787
240 1 -4.0639 6.21221 46.7607 -3.48185
241 1 -2.30223 8.19024 46.7768 -3.51209
242 1 -2.14952 6.23164 -1.58214 -3.502
243 1 -4.06658 7.89719 -1.52462 -3.50569
244 1 -0.504839 6.45187 46.6887 -3.50566
245 1 1.40759 8.25193 46.4958 -3.49967
246 1 1.20426 6.42233 -1.57755 -3.48454
247 1 -0.552318 8.17829 -1.65833 -3.47832
248 1 2.9703 6.45455 46.6485 -3.49752
249 1 4.60648 8.51168 46.6961 -3.43931
250 1 4.7901 6.5715 -1.75083 -3.45328
251 1 3.06395 8.15561 -1.66179 -3.43377
252 1 6.40766 6.76873 46.5728 -3.51357
253 1 8.24636 8.61813 46.4924 -3.521
254 1 8.26753 6.82422 -1.80502 -3.49405
255 1 6.4077 8.46149 -1.80838 -3.48617
256 1 10.0941 6.8585 46.7986 -3.41492
257 1 11.7994 8.52811 46.5247 -3.42635
258 1 11.7255 6.91182 -1.6389 -3.44074
259 1 10.0457 8.81128 -1.68342 -3.52429
260 1 13.4172 6.79345 46.3059 -3.32938
261 1 15.0354 6.75519 -2.0219 -2.73947
262 1 13.5794 8.60745 -1.95914 -3.07653
263 1 -12.8844 9.58563 45.1945 -2.85229
264 1 -11.3792 11.4506 45.3263 -2.81835
265 1 -10.8676 10.8393 -2.68103 -3.1996
266 1 -9.12781 10.9414 45.7746 -3.43219
267 1 -7.38401 12.7406 45.8452 -3.32532
268 1 -8.43363 10.2678 -1.86991 -3.49538
269 1 -9.10581 12.5633 -2.28948 -3.22123
270 1 -6.68835 10.3831 46.4137 -3.45774
271 1 -5.02439 12.2049 46.4141 -3.47323
272 1 -4.73945 10.2813 -2.00336 -3.47552
273 1 -6.61325 11.9709 -1.9746 -3.49266
274 1 -3.01459 10.5485 46.2072 -3.51229
275 1 -1.2473 12.2882 46.1217 -3.47499
276 1 -2.37131 9.83488 -1.49554 -3.48757
277 1 -3.0903 12.1902 -2.01684 -3.50196
278 1 -0.528618 9.98256 -3.39523 -3.48124
279 1 1.06935 11.9213 46.6035 -3.47521
280 1 1.31098 10.0026 -1.77044 -3.48005
281 1 -0.715803 11.64 -1.49519 -3.50567
282 1 2.97294 10.2334 46.4622 -3.43139
283 1 4.54649 12.1047 46.6529 -3.49547
284 1 4.62203 10.2794 -1.83372 -3.527
285 1 2.64028 11.9266 -1.68556 -3.45017
286 1 6.28548 10.2058 46.4827 -3.50727
287 1 8.20812 11.9589 46.4608 -3.39516
288 1 8.05115 10.3482 -1.80096 -3.52094
289 1 6.20713 12.2495 -1.5585 -3.4517
290 1 10.0535 10.3599 46.702 -3.40671
291 1 11.679 12.0574 46.5374 -2.81704
292 1 12.0163 10.4768 -1.82551 -3.25794
293 1 9.96144 11.8697 -1.71789 -3.32581
294 1 13.4245 10.4152 46.3767 -2.68097
295 1 -9.68938 13.4342 45.5084 -2.65434
296 1 -7.29716 14.4514 -2.47571 -2.99523
297 1 -5.75007 14.5279 45.6933 -3.20849
298 1 -3.96638 16.4358 45.6589 -2.79585
299 1 -5.02307 13.8552 -1.7085 -3.41846
300 1 -5.50446 16.0605 -2.68008 -2.67231
301 1 -3.31508 14.0095 46.3782 -3.49911
302 1 -1.70138 15.7876 46.0341 -3.19465
303 1 -1.45668 14.0099 -2.13899 -3.45487
304 1 -3.09859 15.8391 -1.9942 -3.08684
305 1 0.2489 14.3527 46.1745 -3.51844
306 1 2.29493 15.9505 46.0136 -3.14232
307 1 0.939357 13.6015 -1.63239 -3.48406
308 1 0.0480237 15.9128 -2.08758 -3.08568
309 1 2.70995 13.6739 46.7324 -3.42294
310 1 4.71801 15.2664 46.5272 -3.0883
311 1 4.28992 13.8179 -1.65258 -3.40871
312 1 2.505 15.4721 -1.58991 -3.06492
313 1 6.43695 13.6094 46.5712 -3.28078
314 1 8.08079 13.7158 -1.81818 -3.09189
315 1 6.22461 15.3234 -1.75146 -2.72347
316 1 9.90386 13.6345 46.669 -2.73152
317 1 0.119348 17.3727 45.9631 -2.59428
318 1 -5.32006 -14.5888 1.48163 -2.98845
319 1 -6.91568 -14.5021 3.47128 -2.74691
320 1 -1.8008 -14.5423 1.22925 -3.0336
321 1 -3.46427 -14.4919 3.25686 -2.98767
322 1 1.84734 -16.4059 -1.19063 -2.71776
323 1 3.68744 -15.8762 0.153241 -2.68018
324 1 1.32049 -15.7879 0.961168 -2.69407
325 1 5.49313 -14.5974 2.73093 -2.94954
326 1 3.76241 -14.7801 4.66999 -2.99833
327 1 6.87559 -14.5681 4.77452 -2.71383
328 1 -12.3896 -11.3098 2.1461 -2.8794
329 1 -10.5356 -13.021 1.72509 -2.72812
330 1 -8.99346 -11.1576 1.62942 -3.48266
331 1 -8.90762 -13.0565 3.4753 -3.09298
332 1 -10.5895 -11.1251 3.79229 -3.32631
333 1 -7.31164 -12.9844 1.47269 -3.34975
334 1 -5.50383 -11.1555 1.58605 -3.54003
335 1 -5.31879 -12.8467 3.47531 -3.39352
336 1 -7.19308 -11.2614 3.56963 -3.49588
337 1 -3.60823 -12.7838 1.44326 -3.44956
338 1 -1.37739 -12.0993 2.02421 -3.47085
339 1 -1.25195 -14.0354 3.9336 -3.16084
340 1 -2.99706 -12.2723 4.0456 -3.46708
341 1 0.477283 -13.7117 1.91187 -3.31204
342 1 2.20138 -13.7626 -0.108857 -3.49519
343 1 2.97657 -14.1193 2.30402 -3.30389
344 1 0.414018 -11.996 3.84889 -3.48181
345 1 4.60252 -13.7427 0.402859 -3.17276
346 1 6.17457 -11.9532 0.23643 -3.33729
347 1 5.32936 -12.6471 4.76855 -3.46852
348 1 4.49763 -12.1972 2.42317 -3.47522
349 1 7.11541 -12.8557 2.74192 -3.33534
350 1 8.63705 -10.7215 2.66686 -3.39979
351 1 8.53498 -12.62 4.75676 -3.08612
352 1 6.98521 -10.8713 4.7178 -3.46194
353 1 10.1253 -12.4645 2.87815 -2.69762
354 1 12.0828 -10.8001 2.81551 -2.6796
355 1 10.1036 -10.7309 4.7309 -3.27689
356 1 -14.2457 -9.5782 2.04754 -2.70638
357 1 -12.6711 -7.82789 2.01845 -3.42342
358 1 -12.4786 -9.47291 3.88858 -3.32298
359 1 -14.4424 -7.77864 3.85875 -3.10687
360 1 -10.8365 -9.44509 1.83012 -3.50985
361 1 -9.08088 -7.57918 1.72272 -3.50484
362 1 -8.94786 -9.2864 3.55859 -3.47098
363 1 -10.7751 -7.61818 3.70592 -3.50498
364 1 -7.26349 -9.38912 1.64586 -3.53354
365 1 -4.76778 -8.72614 2.05022 -3.44979
366 1 -4.82285 -10.4618 4.04956 -3.46387
367 1 -6.53731 -8.74074 4.02493 -3.50324
368 1 -3.05658 -10.3917 2.10009 -3.47825
369 1 -1.4342 -10.3433 0.103329 -3.51394
370 1 -1.1376 -10.1774 3.91874 -3.46995
371 1 -3.29544 -8.59983 3.87715 -3.46265
372 1 0.339029 -12.0643 0.0814469 -3.50325
373 1 1.9326 -9.88951 0.0696835 -3.49023
374 1 2.10295 -11.7867 1.88467 -3.49008
375 1 0.36276 -10.1645 1.96052 -3.45991
376 1 3.86159 -11.4922 -0.122619 -3.42527
377 1 5.34036 -9.63073 -0.208256 -3.47319
378 1 6.08302 -10.3893 2.44911 -3.4856
379 1 3.70139 -9.78994 1.88055 -3.50412
380 1 7.79231 -10.102 0.361942 -3.50265
381 1 9.5091 -8.32392 0.225696 -3.50593
382 1 8.48927 -8.73682 4.66796 -3.5115
383 1 7.68328 -8.39217 2.25522 -3.4039
384 1 10.3945 -8.94292 2.77611 -3.51455
385 1 11.7482 -6.82988 2.6545 -3.34214
386 1 11.8324 -9.01803 4.92161 -3.18131
387 1 10.352 -7.06527 4.80934 -3.48009
388 1 13.2191 -8.70768 2.71626 -2.7744
389 1 13.4964 -7.00751 4.71849 -2.99985
390 1 -16.2662 -4.07323 2.12532 -3.08224
391 1 -16.2126 -5.96271 3.84388 -2.72343
392 1 -14.4678 -5.98199 2.0191 -3.35805
393 1 -12.6855 -4.20486 1.82745 -3.49124
394 1 -12.5063 -5.91531 3.83438 -3.49631
395 1 -14.2918 -4.29863 3.82571 -3.45525
396 1 -10.8731 -5.82083 1.77168 -3.48432
397 1 -8.53278 -5.08435 2.30318 -3.47694
398 1 -8.33899 -7.04528 4.11755 -3.51055
399 1 -10.1241 -5.21501 4.27922 -3.50926
400 1 -6.70283 -6.89029 2.12529 -3.53645
401 1 -5.10487 -6.87943 -0.023628 -3.47142
402 1 -5.01882 -6.85462 4.08831 -3.48057
403 1 -6.74176 -5.03045 3.97418 -3.48068
404 1 -3.27587 -8.52131 0.0635506 -3.49811
405 1 -1.65164 -6.48523 0.124252 -3.49853
406 1 -1.41405 -8.43219 1.98283 -3.53814
407 1 -3.34674 -6.64418 1.99427 -3.50324
408 1 0.0814959 -8.24319 0.0536522 -3.47982
409 1 1.7309 -6.36332 0.00348409 -3.4736
410 1 1.76291 -8.10923 2.07852 -3.51998
411 1 0.0700367 -6.26703 1.97406 -3.48885
412 1 3.48405 -7.90565 -0.0860488 -3.46502
413 1 5.16087 -6.0347 -0.403213 -3.44044
414 1 5.35765 -8.05467 1.87302 -3.41633
415 1 3.55136 -6.23764 1.759 -3.51879
416 1 6.97725 -7.72699 -0.406932 -3.43911
417 1 8.63426 -6.04501 -0.324404 -3.45032
418 1 9.33452 -6.74393 2.41059 -3.41392
419 1 6.84321 -6.13289 1.70884 -3.47481
420 1 11.1235 -6.42151 0.354863 -3.4825
421 1 12.8774 -4.5604 0.261437 -3.47314
422 1 11.9734 -5.12803 4.7334 -3.47955
423 1 11.1993 -4.49597 2.14905 -3.45754
424 1 13.6426 -5.34745 2.68512 -3.32335
425 1 15.3573 -3.26198 2.66613 -2.98229
426 1 15.1404 -4.99876 4.67019 -2.72556
427 1 13.5127 -3.26729 4.60088 -3.30152
428 1 -16.583 -1.46433 2.15989 -2.88072
429 1 -16.0286 -2.69005 4.10829 -2.92091
430 1 -14.3995 -2.4181 2.085 -3.40097
431 1 -12.1304 -1.67502 2.42743 -3.48001
432 1 -11.9019 -3.37923 4.26724 -3.50064
433 1 -13.6867 -1.79543 4.33376 -3.35646
434 1 -10.2044 -3.44519 2.3661 -3.46301
435 1 -8.70634 -3.34489 0.367399 -3.51801
436 1 -8.68833 -3.21556 4.25903 -3.47918
437 1 -10.3976 -1.50939 4.13596 -3.4461
438 1 -6.78334 -5.00971 0.106254 -3.49063
439 1 -5.25965 -2.92948 0.263303 -3.51774
440 1 -5.23704 -4.82044 2.11229 -3.46793
441 1 -7.00503 -3.02742 2.16991 -3.51084
442 1 -3.55692 -4.83833 0.101346 -3.50307
443 1 -1.95499 -2.83169 0.0400228 -3.52308
444 1 -1.87584 -4.63788 1.98538 -3.50703
445 1 -3.58791 -2.77317 2.14968 -3.48194
446 1 -0.174762 -4.46695 -0.0159995 -3.46576
447 1 1.35272 -2.67313 0.0172594 -3.46884
448 1 1.71727 -4.50778 1.76982 -3.49049
449 1 -0.238542 -2.72927 1.93681 -3.51669
450 1 3.33111 -4.35869 -0.168626 -3.53682
451 1 5.08597 -2.46964 -0.078009 -3.51161
452 1 5.16431 -4.35038 1.89133 -3.46032
453 1 3.26712 -2.60532 1.77423 -3.48235
454 1 6.83277 -4.12989 0.0563139 -3.44571
455 1 8.51188 -2.30736 -0.191226 -3.49248
456 1 8.70451 -4.16494 1.7916 -3.51191
457 1 6.8031 -2.47907 1.89895 -3.47402
458 1 10.3465 -4.16055 -0.235598 -3.48509
459 1 11.9393 -2.10035 -0.301633 -3.51597
460 1 12.8853 -2.7518 2.3369 -3.4583
461 1 10.3582 -2.22051 1.8341 -3.48344
462 1 14.4661 -2.6194 0.325781 -3.31134
463 1 16.1748 -0.923627 0.466608 -2.8174
464 1 15.3168 -1.54127 4.67022 -3.00322
465 1 14.5425 -0.814251 2.40131 -3.34497
466 1 -16.5348 0.915652 1.93179 -2.70498
467 1 -15.0433 2.69761 2.06381 -3.24396
468 1 -15.756 -0.43382 4.28862 -3.15958
469 1 -14.1243 -0.0208618 2.15935 -3.45397
470 1 -12.6655 0.274106 0.387546 -3.50552
471 1 -12.2407 0.161999 4.30187 -3.50048
472 1 -14.2369 1.66637 4.39766 -3.43566
473 1 -10.5609 -1.4079 0.367339 -3.45977
474 1 -9.18777 0.426211 0.18512 -3.40809
475 1 -8.81953 -1.34944 2.12119 -3.43579
476 1 -10.6142 0.322363 2.32371 -3.5135
477 1 -7.31467 -1.06748 0.238021 -3.48018
478 1 -5.53263 0.748139 0.342211 -3.47851
479 1 -5.4198 -1.07543 2.16582 -3.50741
480 1 -7.32929 0.475829 2.25153 -3.48673
481 1 -3.76859 -0.876547 0.206172 -3.47779
482 1 -2.14789 0.992233 0.11552 -3.46366
483 1 -1.99492 -0.974223 2.01931 -3.49333
484 1 -3.72641 0.788403 2.24503 -3.47456
485 1 -0.28802 -0.76511 0.096449 -3.53825
486 1 1.50419 1.15804 0.0183113 -3.47456
487 1 1.58858 -0.821384 1.87379 -3.51485
488 1 -0.217343 1.0186 2.19364 -3.47123
489 1 3.30853 -0.788621 0.0108695 -3.473
490 1 4.96484 0.947476 0.139045 -3.42823
491 1 5.01339 -0.681713 1.90469 -3.51185
492 1 3.19358 1.15504 2.02004 -3.51467
493 1 6.7655 -0.565974 0.0281124 -3.4658
494 1 8.42797 1.15018 0.150487 -3.41245
495 1 8.44558 -0.732534 1.89668 -3.47255
496 1 6.75055 1.13815 2.0558 -3.53498
497 1 10.042 -0.487461 -0.0813009 -3.40879
498 1 11.7766 1.30983 0.123197 -3.44568
499 1 12.0796 -0.508253 1.88159 -3.4793
500 1 10.1141 1.09431 1.93561 -3.51855
501 1 13.7434 -0.199534 -0.129511 -3.50148
502 1 15.4296 1.6642 -0.0594362 -3.24424
503 1 15.9858 1.10279 2.40151 -2.82181
504 1 13.7382 1.5961 1.87797 -3.46309
505 1 17.0689 1.87531 -1.9852 -2.51779
506 1 -15.0355 4.12666 -0.0895294 -2.89858
507 1 -15.1793 4.01724 4.21678 -3.06429
508 1 -13.1463 2.74442 -0.119123 -3.30469
509 1 -11.5599 4.71168 -0.148267 -3.50205
510 1 -12.6367 2.03536 2.28175 -3.51109
511 1 -13.1856 4.45383 2.00532 -3.41708
512 1 -10.924 2.07507 0.407324 -3.47752
513 1 -9.26188 3.98461 0.400977 -3.52226
514 1 -9.07806 2.24786 2.24998 -3.48178
515 1 -10.8427 3.91109 2.27017 -3.47368
516 1 -7.43629 2.28677 0.279453 -3.52011
517 1 -5.79341 4.19544 0.433233 -3.51262
518 1 -5.58714 2.40573 2.28474 -3.49283
519 1 -7.4165 4.07433 2.36993 -3.49867
520 1 -3.96581 2.5729 0.0544849 -3.41654
521 1 -2.1402 4.49675 0.262358 -3.52496
522 1 -2.12306 2.57007 2.13655 -3.47806
523 1 -3.92216 4.20293 2.31288 -3.48886
524 1 -0.332077 2.64138 0.149537 -3.47868
525 1 1.37561 4.60685 0.28088 -3.54376
526 1 1.3208 2.87963 2.13023 -3.44286
527 1 -0.452145 4.42207 2.24623 -3.4505
528 1 3.29594 2.96617 0.170109 -3.47516
529 1 4.79578 4.72014 0.0626448 -3.46949
530 1 4.89799 2.86592 2.1423 -3.46781
531 1 3.15235 4.59284 2.12151 -3.50838
532 1 6.52646 2.879 0.115692 -3.53357
533 1 8.23043 4.98907 0.176819 -3.4495
534 1 8.42218 3.04613 1.97255 -3.49022
535 1 6.60182 4.62873 2.06876 -3.51338
536 1 10.1923 2.95808 0.0590353 -3.41005
537 1 11.7105 5.04143 0.0748159 -3.51517
538 1 11.7051 3.13771 2.00421 -3.51246
539 1 9.88749 4.91884 1.94304 -3.4549
540 1 13.5466 3.27339 -0.144033 -3.47794
541 1 15.169 5.11586 0.0386099 -2.99637
542 1 15.3396 3.43354 1.9437 -3.11076
543 1 13.4849 5.01197 2.01712 -3.42094
544 1 -15.3126 5.41774 2.01965 -2.69138
545 1 -13.6975 6.00879 -0.0355089 -3.13859
546 1 -11.7736 7.94022 -0.0175566 -3.33163
547 1 -11.5878 6.27226 1.89058 -3.42973
548 1 -13.5623 7.49799 1.95778 -3.00367
549 1 -9.88124 6.49161 -0.159791 -3.4562
550 1 -8.2003 8.24493 -0.192219 -3.49855
551 1 -9.17931 5.82451 2.4076 -3.46143
552 1 -9.94185 8.09607 1.83448 -3.50077
553 1 -7.58369 5.85136 0.456651 -3.50895
554 1 -5.80925 7.73745 0.474651 -3.49208
555 1 -5.64058 5.91336 2.43696 -3.46463
556 1 -7.35914 7.62797 2.32404 -3.4779
557 1 -4.11285 6.04208 0.299537 -3.48492
558 1 -2.4148 7.87159 0.374883 -3.46152
559 1 -2.16121 6.10099 2.38339 -3.47583
560 1 -3.93956 7.73324 2.36984 -3.48185
561 1 -0.515303 6.40061 0.389986 -3.4934
562 1 1.37352 8.22999 0.124022 -3.45845
563 1 1.37779 6.27136 2.26336 -3.49549
564 1 -0.346745 8.05497 2.3301 -3.48857
565 1 3.07884 6.5472 0.302382 -3.483
566 1 4.78525 8.27573 0.0845117 -3.45367
567 1 4.88017 6.46687 2.02357 -3.44431
568 1 3.17768 8.23311 2.12696 -3.52017
569 1 6.49647 6.57828 0.26331 -3.43558
570 1 8.21158 8.53265 0.024661 -3.53776
571 1 8.22002 6.71522 2.02121 -3.52547
572 1 6.31598 8.38744 1.98474 -3.47652
573 1 9.99833 6.80475 0.112481 -3.50829
574 1 11.7912 8.70493 0.0649801 -3.4172
575 1 11.7559 6.7934 1.97722 -3.52376
576 1 9.88945 8.649 2.00516 -3.46951
577 1 13.4653 6.86116 -0.00950238 -3.34614
578 1 15.2403 6.58667 2.14272 -2.6971
579 1 13.5794 8.43321 2.16258 -3.09225
580 1 -12.3939 10.3468 -0.459905 -2.68279
581 1 -10.7692 12.2837 -0.528025 -2.85769
582 1 -11.9319 9.4729 1.85992 -3.19341
583 1 -10.0574 9.90323 0.00184133 -3.45128
584 1 -8.42405 11.8964 0.0480055 -3.42134
585 1 -8.18663 10.1549 1.82078 -3.51216
586 1 -10.201 11.5554 1.96415 -3.24413
587 1 -6.48976 10.2174 -0.00636058 -3.49871
588 1 -4.8162 11.8932 -0.0415256 -3.45619
589 1 -5.66193 9.52154 2.27507 -3.49751
590 1 -6.47097 12.0788 1.82859 -3.4707
591 1 -4.09197 9.59909 0.352708 -3.46996
592 1 -2.46683 11.5647 0.453152 -3.48719
593 1 -2.26553 9.79628 2.22995 -3.54028
594 1 -4.09926 11.4871 2.37338 -3.4815
595 1 -0.576313 9.7513 0.307085 -3.53052
596 1 1.01602 11.7189 0.265687 -3.4897
597 1 1.304 9.9262 2.20323 -3.4945
598 1 -0.521879 11.6353 2.24052 -3.51184
599 1 2.90628 10.2287 0.308853 -3.49145
600 1 4.52665 12.0659 0.198559 -3.44575
601 1 4.66145 10.1912 2.25587 -3.48974
602 1 2.77971 11.8498 2.2519 -3.45602
603 1 6.3412 10.2407 0.140558 -3.49108
604 1 7.99318 11.9415 0.168831 -3.39033
605 1 8.03832 10.1507 2.00812 -3.4897
606 1 6.29124 12.0462 2.05673 -3.50139
607 1 9.94066 10.4163 0.329776 -3.45871
608 1 11.8796 12.0591 0.377678 -2.74706
609 1 11.7836 10.3119 2.21767 -3.30973
610 1 9.81477 12.0698 2.11978 -3.34947
611 1 13.6392 10.068 0.359598 -2.6417
612 1 -8.98515 14.1955 -0.427576 -2.70672
613 1 -8.69149 13.5205 1.99287 -3.11151
614 1 -6.66654 13.6839 0.0911374 -3.31079
615 1 -5.02795 15.7589 0.127098 -2.88412
616 1 -4.86913 13.928 1.91091 -3.45301
617 1 -6.81774 15.4242 1.81272 -2.68777
618 1 -3.08763 14.0679 -0.000276401 -3.45544
619 1 -1.40705 15.7379 -0.0770811 -3.01604
620 1 -2.32943 13.163 2.2954 -3.43759
621 1 -3.02356 15.7438 1.93166 -3.0084
622 1 -0.778806 13.3732 0.30698 -3.46208
623 1 0.874106 15.2066 0.343712 -3.24501
624 1 1.19829 13.5613 2.33698 -3.42966
625 1 -0.740538 15.0165 2.23542 -3.28213
626 1 2.76607 13.5649 0.337189 -3.43432
627 1 4.30268 15.546 0.348943 -2.9552
628 1 4.41251 13.6745 2.13307 -3.43201
629 1 2.63355 15.4227 2.3515 -3.10006
630 1 6.295 13.9819 0.299039 -3.3325
631 1 7.93703 13.7866 2.27342 -3.08871
632 1 6.05812 15.371 2.31537 -2.71169
633 1 9.61453 13.6121 0.121344 -2.7225
634 1 0.7081 16.8514 2.21585 -2.56787
635 1 -5.02102 -14.6923 5.2618 -2.98195
636 1 -6.80455 -14.7862 7.2619 -2.68376
637 1 -0.583475 -14.6578 6.5226 -2.98696
638 1 -2.10418 -14.7593 8.55313 -3.06199
639 1 1.32617 -14.3349 4.20976 -3.08237
640 1 2.15919 -14.8277 6.71261 -3.01238
641 1 0.519891 -15.2509 8.82181 -3.02353
642 1 5.24236 -14.6909 6.74822 -2.9991
643 1 3.56979 -14.7983 8.73256 -3.11742
644 1 6.02649 -15.1253 9.06022 -2.71589
645 1 -12.2882 -11.1075 5.63584 -2.86359
646 1 -10.3622 -12.9889 5.61817 -2.74815
647 1 -8.70037 -11.2074 5.36945 -3.38817
648 1 -8.69998 -13.2885 7.43997 -3.05887
649 1 -10.5516 -11.4433 7.45938 -3.28165
650 1 -7.18288 -13.1014 5.42816 -3.36152
651 1 -4.6141 -12.3457 5.87851 -3.49414
652 1 -4.55948 -14.3308 7.78353 -3.15585
653 1 -6.2273 -12.4777 7.89026 -3.4665
654 1 -2.75383 -14.1419 5.92538 -3.13897
655 1 -1.33903 -12.1737 5.90341 -3.48493
656 1 -0.616923 -12.9554 8.31051 -3.43894
657 1 -2.95089 -12.4197 7.80469 -3.49931
658 1 1.13316 -12.6374 6.31041 -3.49212
659 1 2.89689 -12.3283 4.43685 -3.48186
660 1 1.92573 -13.1372 8.69211 -3.43009
661 1 1.06737 -10.795 8.32402 -3.45899
662 1 3.61953 -12.8593 6.78816 -3.4577
663 1 5.34146 -11.0408 6.76621 -3.50447
664 1 5.19856 -12.8304 8.74499 -3.41561
665 1 3.46753 -11.3408 8.89707 -3.41106
666 1 6.98076 -12.8962 6.81132 -3.35837
667 1 8.57473 -10.9003 6.77581 -3.41008
668 1 7.87214 -13.4356 9.06017 -3.05906
669 1 6.92189 -11.0531 8.81749 -3.50029
670 1 9.51987 -13.0216 7.11746 -2.70236
671 1 10.951 -11.0955 7.20742 -2.88534
672 1 9.45718 -11.5547 9.18876 -3.29483
673 1 -14.0496 -9.40403 5.8105 -2.74629
674 1 -12.4178 -7.57895 5.89305 -3.45939
675 1 -12.2031 -9.60178 7.53011 -3.31991
676 1 -14.1871 -7.76309 7.85333 -3.12673
677 1 -10.5188 -9.4143 5.50023 -3.47512
678 1 -8.17772 -8.70452 6.07403 -3.48591
679 1 -8.19339 -10.95 7.90856 -3.48745
680 1 -9.8562 -8.95724 7.93875 -3.52914
681 1 -6.40916 -10.6724 5.98101 -3.49327
682 1 -4.87834 -8.61042 6.04316 -3.5255
683 1 -4.6613 -10.5389 7.69441 -3.50024
684 1 -6.61969 -8.69787 7.85474 -3.46662
685 1 -3.09884 -10.4088 5.76307 -3.46899
686 1 -1.51004 -8.53461 5.88408 -3.49754
687 1 -1.48738 -10.3827 7.74133 -3.49899
688 1 -3.04244 -8.56902 7.93673 -3.46701
689 1 0.31773 -10.2293 5.88168 -3.49653
690 1 1.93127 -9.9887 4.0336 -3.5055
691 1 2.959 -10.4899 6.41287 -3.4757
692 1 0.256938 -8.57676 7.89023 -3.41284
693 1 4.35751 -10.4113 4.32112 -3.47557
694 1 5.89805 -8.43087 4.36398 -3.5003
695 1 5.0789 -9.45264 8.84414 -3.50912
696 1 4.47563 -8.65164 6.4558 -3.44449
697 1 6.91995 -9.05243 6.72142 -3.48552
698 1 8.41224 -7.03011 6.64804 -3.47949
699 1 8.59631 -8.97413 8.68142 -3.48198
700 1 6.72907 -7.34601 8.73766 -3.50115
701 1 10.1497 -8.85766 6.83456 -3.43991
702 1 11.822 -6.94844 6.7999 -3.35188
703 1 10.9977 -9.58576 9.22723 -3.3101
704 1 10.4006 -7.2396 8.91781 -3.46005
705 1 12.6256 -9.23158 7.30086 -2.74652
706 1 12.7886 -7.55752 9.22875 -3.10173
707 1 -16.0072 -4.47938 5.8012 -2.94999
708 1 -16.0099 -6.1226 7.61462 -2.646
709 1 -14.2989 -6.08601 5.70389 -3.31894
710 1 -11.7521 -5.1565 6.2721 -3.50622
711 1 -11.6213 -7.18272 8.20665 -3.52095
712 1 -13.5698 -5.43382 7.99838 -3.45747
713 1 -10.0242 -7.05132 6.14584 -3.50568
714 1 -8.38912 -5.15104 6.0531 -3.51235
715 1 -8.27181 -6.89354 7.92268 -3.51067
716 1 -10.0629 -5.14457 8.14081 -3.51051
717 1 -6.51448 -6.7824 6.06918 -3.47041
718 1 -4.92323 -4.97274 5.98899 -3.49879
719 1 -4.81919 -6.84198 7.92351 -3.49129
720 1 -6.59146 -5.09114 7.9732 -3.49784
721 1 -3.18724 -6.73316 5.82757 -3.50981
722 1 -1.59536 -6.56279 3.75149 -3.47081
723 1 -1.22021 -6.71498 7.82147 -3.46376
724 1 -3.13957 -5.03664 7.80848 -3.51422
725 1 0.195618 -8.17017 4.03118 -3.38655
726 1 1.98118 -6.27324 3.74527 -3.48743
727 1 1.93699 -8.24618 5.74001 -3.4802
728 1 0.168393 -6.52117 5.68115 -3.46775
729 1 3.65052 -8.00649 3.68691 -3.4447
730 1 5.2222 -6.04017 3.67414 -3.50512
731 1 5.94939 -6.6633 6.18425 -3.48001
732 1 3.57311 -6.37387 5.74073 -3.45867
733 1 7.64001 -6.47241 4.18149 -3.47441
734 1 9.56724 -4.77068 4.15937 -3.45062
735 1 8.56702 -5.5413 8.70134 -3.48346
736 1 7.60713 -4.70958 6.28542 -3.46494
737 1 10.1679 -5.12688 6.72327 -3.47093
738 1 12.0546 -3.51078 6.71124 -3.52133
739 1 12.0569 -5.21153 8.54307 -3.41292