ITEM: TIMESTEP
130000
ITEM: NUMBER OF ATOMS
3804
ITEM: BOX BOUNDS ss ss pp
-1.8061429862445873e+01 1.7856455199775414e+01
-1.7478158371254128e+01 1.7302194469135390e+01
-2.8197000000000001e+00 4.6199700000000000e+01
ITEM: ATOMS id type x y z c_peratom
1 1 -5.58267 -14.5846 -2.2723 -3.00939
2 1 -7.26604 -14.6448 -0.47365 -2.69766
3 1 -2.18144 -14.8729 -2.38964 -3.08763
4 1 -3.74919 -14.7108 -0.378055 -3.0515
5 1 0.00111256 -16.2526 -2.44222 -2.53926
6 1 1.77913 -16.2512 44.6705 -2.83999
7 1 -0.476606 -14.8874 -0.381153 -3.19348
8 1 5.58968 -15.2059 45.2342 -2.87181
9 1 3.77117 -15.3532 -1.70864 -2.8466
10 1 7.23881 -13.7983 0.500651 -2.66887
11 1 -12.4789 -10.9599 -2.20651 -2.83183
12 1 -10.8043 -12.6813 -2.35049 -2.7005
13 1 -9.00345 -11.0371 -2.15584 -3.4355
14 1 -8.97716 -12.9507 -0.351323 -3.09687
15 1 -10.7306 -11.1924 -0.212597 -3.34376
16 1 -7.34077 -12.8194 -2.34152 -3.34555
17 1 -5.44317 -11.1178 -2.27036 -3.47148
18 1 -5.5105 -12.8398 -0.279682 -3.46407
19 1 -7.2756 -11.1914 -0.153249 -3.49557
20 1 -3.65357 -13.0244 -2.2118 -3.45549
21 1 -1.9565 -12.8621 44.8201 -3.4584
22 1 -1.95045 -13.0281 -0.243912 -3.41427
23 1 -3.71402 -11.2115 -0.17439 -3.51229
24 1 -0.371335 -14.5839 44.702 -3.30257
25 1 1.53522 -12.8009 45.0095 -3.43878
26 1 1.55963 -14.6167 -2.42885 -3.21399
27 1 -0.342786 -13.0528 -2.19542 -3.54364
28 1 3.33821 -14.3314 44.7771 -3.30899
29 1 5.15872 -12.7184 45.0332 -3.463
30 1 5.71316 -13.6464 -1.50265 -3.20577
31 1 3.2763 -12.9455 -2.15218 -3.48139
32 1 7.4678 -13.3896 45.4648 -3.12802
33 1 9.40141 -11.6347 45.6175 -3.18975
34 1 9.3379 -12.0035 0.636357 -3.04274
35 1 7.53775 -11.9217 -1.47909 -3.35776
36 1 10.8911 -11.6839 -1.05525 -2.65099
37 1 12.6619 -9.97135 -1.16416 -2.87223
38 1 10.9803 -10.1557 0.702487 -3.29533
39 1 -14.2478 -9.27847 -2.2075 -2.70826
40 1 -12.5607 -7.47482 -1.80307 -3.47053
41 1 -12.6336 -9.44548 -0.218481 -3.30151
42 1 -14.3732 -7.45168 -0.188075 -3.09399
43 1 -10.7746 -9.35832 -2.04873 -3.44499
44 1 -9.16341 -7.4229 -1.87198 -3.47976
45 1 -9.07446 -9.29666 -0.142203 -3.46308
46 1 -10.6837 -7.61599 0.168098 -3.41102
47 1 -7.17651 -9.42562 -2.11004 -3.47401
48 1 -5.45584 -9.22429 45.1247 -3.49663
49 1 -5.51763 -9.42006 -0.148778 -3.50862
50 1 -7.30143 -7.66129 -0.0374789 -3.51169
51 1 -3.64909 -11.0389 44.988 -3.49823
52 1 -1.93035 -9.20913 45.2138 -3.50175
53 1 -1.93546 -11.1459 -2.15686 -3.50216
54 1 -3.67971 -9.38067 -2.06359 -3.52577
55 1 -0.226485 -10.9999 44.953 -3.45667
56 1 1.71367 -9.54351 45.0524 -3.37591
57 1 1.54405 -11.2451 -2.18755 -3.48166
58 1 -0.126895 -9.4768 -2.0055 -3.46876
59 1 3.28648 -11.1927 45.0243 -3.40426
60 1 5.09489 -9.30009 45.114 -3.49064
61 1 5.13126 -11.17 -1.98437 -3.50403
62 1 3.44269 -9.48258 -1.92761 -3.49878
63 1 6.8757 -10.9195 45.1885 -3.48268
64 1 8.68167 -9.34135 45.3927 -3.45539
65 1 9.23723 -10.0292 -1.20358 -3.45445
66 1 6.94551 -9.30886 -1.72619 -3.48337
67 1 11.0618 -9.70085 45.9876 -3.33332
68 1 12.9753 -8.10959 45.9929 -3.31367
69 1 12.8598 -8.50832 0.889738 -3.32099
70 1 11.0614 -8.20957 -0.946108 -3.43716
71 1 14.4437 -8.23928 -0.993077 -2.75464
72 1 14.6865 -6.68856 1.00579 -3.12567
73 1 -15.7034 -3.77943 -1.82101 -2.98049
74 1 -16.04 -5.46383 0.0126775 -2.7228
75 1 -14.2304 -5.69965 -1.80498 -3.26165
76 1 -12.4879 -4.06158 -1.70218 -3.44726
77 1 -12.5272 -5.80947 0.190007 -3.52377
78 1 -14.1853 -3.88454 0.225454 -3.46531
79 1 -10.6855 -5.60392 -1.71281 -3.41556
80 1 -8.95305 -5.4335 45.3637 -3.45759
81 1 -9.15196 -5.82952 0.0884746 -3.47592
82 1 -10.8855 -3.99866 0.144122 -3.4757
83 1 -7.2648 -7.4133 45.3742 -3.5032
84 1 -5.53624 -5.68405 45.3227 -3.48799
85 1 -5.52289 -7.61086 -1.71619 -3.46193
86 1 -7.29176 -5.73955 -1.84984 -3.50618
87 1 -3.77289 -7.39448 45.0888 -3.44963
88 1 -1.84727 -5.86596 45.3729 -3.51596
89 1 -1.81677 -7.5873 -1.88795 -3.46754
90 1 -3.74378 -5.97044 -1.81534 -3.5204
91 1 0.010899 -7.63817 45.3927 -3.51539
92 1 1.58337 -5.66728 45.4603 -3.497
93 1 1.61255 -7.70411 -1.77758 -3.49343
94 1 -0.188883 -5.84371 -1.73027 -3.49681
95 1 3.10295 -7.59533 45.2548 -3.45526
96 1 5.17268 -5.87569 45.5611 -3.51535
97 1 5.14639 -7.6914 -1.59475 -3.45152
98 1 3.27701 -5.86668 -1.54078 -3.48914
99 1 6.94387 -7.56692 45.4377 -3.5098
100 1 8.65125 -5.62487 45.5303 -3.49937
101 1 8.75415 -7.47879 -1.6862 -3.53086
102 1 6.86008 -5.70023 -1.60873 -3.47805
103 1 10.5509 -7.32164 45.4767 -3.51541
104 1 12.3849 -5.65047 45.6102 -3.47478
105 1 12.9049 -6.4765 -0.718868 -3.37929
106 1 10.5251 -5.83987 -1.43695 -3.4859
107 1 14.7223 -6.43099 -2.75743 -3.21989
108 1 16.4804 -4.58237 -2.69293 -2.85074
109 1 16.4679 -4.93213 1.43305 -2.68696
110 1 14.7732 -4.9255 -0.79769 -3.32278
111 1 -16.0073 -0.284159 -1.64365 -3.01928
112 1 -15.9797 -2.2214 -0.130994 -2.97921
113 1 -13.9939 -2.10832 -1.5952 -3.48391
114 1 -12.2919 -2.00886 45.3652 -3.44997
115 1 -12.4971 -2.18511 0.453448 -3.46728
116 1 -14.3785 -0.398257 0.275514 -3.43475
117 1 -10.6131 -3.72081 45.2092 -3.45858
118 1 -8.858 -1.99302 45.3399 -3.476
119 1 -8.9812 -3.72737 -1.61708 -3.47801
120 1 -10.825 -2.04941 -1.62716 -3.51417
121 1 -7.14303 -3.92421 45.3636 -3.44777
122 1 -5.31153 -2.23004 45.4687 -3.4903
123 1 -5.51698 -4.09625 -1.65807 -3.48392
124 1 -7.11842 -2.33189 -1.69031 -3.40391
125 1 -3.65787 -4.0301 45.5254 -3.53294
126 1 -1.82081 -2.06639 45.5342 -3.51392
127 1 -1.91495 -3.95524 -1.72807 -3.51761
128 1 -3.7992 -2.26229 -1.52519 -3.49614
129 1 -0.128322 -3.93043 45.4631 -3.50632
130 1 1.69381 -2.23688 45.49 -3.46509
131 1 1.55263 -4.14097 -1.55961 -3.47912
132 1 -0.0823033 -2.34163 -1.64515 -3.46736
133 1 3.40756 -3.86792 45.4545 -3.47875
134 1 5.17049 -2.09109 45.68 -3.47314
135 1 5.09133 -4.01638 -1.61778 -3.44388
136 1 3.31135 -2.2367 -1.46006 -3.54909
137 1 6.85356 -4.00808 45.5555 -3.49704
138 1 8.79309 -2.31711 45.9116 -3.52683
139 1 8.80711 -4.12653 -1.33935 -3.48834
140 1 6.73918 -2.38747 -1.4545 -3.48072
141 1 10.5406 -4.03664 45.7371 -3.48251
142 1 12.2264 -2.12395 45.6999 -3.49735
143 1 12.3941 -4.10963 -1.51097 -3.48968
144 1 10.5807 -2.34549 -1.19993 -3.51301
145 1 14.2369 -3.94566 45.6104 -3.46396
146 1 15.9522 -2.11659 45.9557 -3.14601
147 1 16.4156 -3.15333 -0.459985 -2.97872
148 1 14.1825 -2.56045 -1.36499 -3.46949
149 1 -18.0687 2.28639 41.2014 -2.62374
150 1 -15.7998 1.61558 45.5344 -3.14804
151 1 -16.2236 1.32299 0.378329 -3.055
152 1 -14.1945 -0.214663 45.508 -3.44063
153 1 -12.383 1.50707 45.5417 -3.52875
154 1 -12.4138 -0.196338 -1.60795 -3.48397
155 1 -14.2511 1.45388 -1.57426 -3.44462
156 1 -10.6211 -0.318431 45.444 -3.47042
157 1 -8.66065 1.30134 45.6509 -3.52104
158 1 -8.8183 -0.466235 -1.49208 -3.52766
159 1 -10.446 1.34537 -1.43123 -3.4838
160 1 -7.04297 -0.498068 45.3926 -3.43875
161 1 -5.25772 1.40335 45.6886 -3.49408
162 1 -5.60221 -0.544126 -1.41141 -3.47541
163 1 -7.0228 1.4519 -1.3651 -3.50139
164 1 -3.64728 -0.333896 45.5801 -3.48378
165 1 -1.83627 1.30321 45.8585 -3.50462
166 1 -1.95966 -0.525624 -1.50273 -3.50426
167 1 -3.64673 1.21904 -1.35568 -3.47074
168 1 0.0490537 -0.507544 45.6799 -3.44667
169 1 1.74374 1.39119 45.7736 -3.49184
170 1 1.48682 -0.522125 -1.49929 -3.45833
171 1 -0.167378 1.29051 -1.28661 -3.52273
172 1 3.37244 -0.425478 45.817 -3.4636
173 1 5.11423 1.10623 45.7687 -3.44089
174 1 5.11774 -0.384117 -1.26479 -3.47325
175 1 3.35807 1.16831 -1.23046 -3.48768
176 1 6.92965 -0.530898 45.7399 -3.44557
177 1 8.58663 1.14213 46.0171 -3.45396
178 1 8.68275 -0.551058 -1.23209 -3.42884
179 1 7.01275 1.10161 -1.08814 -3.42812
180 1 10.4989 -0.357309 45.9585 -3.40754
181 1 12.3601 1.17271 46.1303 -3.45842
182 1 12.5048 -0.612989 -1.17043 -3.51431
183 1 10.4558 0.982221 -1.16639 -3.40681
184 1 14.2084 -0.449185 46.0653 -3.4895
185 1 15.9606 1.4058 46.1715 -3.27861
186 1 15.9356 -0.735356 -0.857079 -3.28152
187 1 14.2536 1.14231 -0.988017 -3.53385
188 1 17.6707 -0.567813 46.1697 -2.46991
189 1 -15.8965 4.68172 45.794 -2.90204
190 1 -15.9749 3.16123 -1.38464 -2.96344
191 1 -14.0267 3.36437 45.5316 -3.33406
192 1 -12.1963 4.7101 45.7685 -3.35143
193 1 -12.3197 3.00854 -1.30279 -3.51041
194 1 -13.9592 4.78331 -1.40582 -3.41658
195 1 -10.4482 3.14243 45.7519 -3.45623
196 1 -8.78543 4.88803 45.7913 -3.47447
197 1 -8.78642 3.16389 -1.43213 -3.48727
198 1 -10.7143 4.8734 -1.17124 -3.43433
199 1 -6.93013 3.14692 45.7976 -3.48985
200 1 -5.29767 4.87465 45.9289 -3.47379
201 1 -5.13749 3.04997 -1.332 -3.4778
202 1 -7.03388 4.88151 -1.19711 -3.51335
203 1 -3.51664 3.21629 45.688 -3.50929
204 1 -1.69393 4.94485 46.0062 -3.4672
205 1 -2.05482 3.04411 -1.34207 -3.47863
206 1 -3.59263 4.87831 -1.12577 -3.47507
207 1 -0.141503 3.1319 45.9944 -3.46488
208 1 1.63212 4.68691 45.9839 -3.4881
209 1 1.68106 2.94673 -1.13456 -3.50381
210 1 0.0158525 4.67103 -1.07938 -3.48448
211 1 3.51131 2.97541 45.8887 -3.51002
212 1 5.20397 4.73959 46.0507 -3.42724
213 1 5.29738 2.85543 -1.0674 -3.48306
214 1 3.5537 4.60211 -1.05749 -3.46362
215 1 6.85626 2.88889 46.1096 -3.51459
216 1 8.8103 4.55971 -2.98098 -3.50171
217 1 8.89485 2.85096 -1.11283 -3.49046
218 1 7.05412 4.6205 -0.904999 -3.48376
219 1 10.6693 2.97853 46.0864 -3.50258
220 1 12.431 4.70903 -2.66494 -3.47015
221 1 12.2191 2.60344 -0.885369 -3.49852
222 1 10.5918 4.53735 -0.834432 -3.50658
223 1 14.098 2.98527 46.2276 -3.44502
224 1 15.9674 4.38746 46.3139 -2.98627
225 1 15.9557 2.9848 -0.765126 -3.12377
226 1 14.0382 4.36757 -0.70185 -3.43718
227 1 -15.2476 6.81135 -1.37143 -2.94484
228 1 -13.6882 6.54538 45.829 -3.38447
229 1 -12.018 8.48006 46.0542 -3.39832
230 1 -12.3723 6.65166 -1.00646 -3.52109
231 1 -13.6662 8.71598 -1.03193 -3.06856
232 1 -10.5916 6.63491 46.022 -3.48342
233 1 -8.78641 8.53997 46.0503 -3.49072
234 1 -8.9764 6.36661 -1.16104 -3.44356
235 1 -10.489 8.43396 -1.12689 -3.51393
236 1 -6.98038 6.65495 45.9462 -3.48772
237 1 -5.2773 8.54548 46.1677 -3.49976
238 1 -5.37319 6.66927 -1.25679 -3.46539
239 1 -7.22028 8.27577 -0.947819 -3.50437
240 1 -3.4421 6.61581 45.9458 -3.49261
241 1 -1.72761 8.3865 -2.88994 -3.50584
242 1 -1.65384 6.50303 -0.896083 -3.4982
243 1 -3.38232 8.3978 -0.970682 -3.48342
244 1 0.0545898 6.55904 46.014 -3.50112
245 1 1.91923 8.32967 -2.85419 -3.44679
246 1 1.8398 6.25775 -0.981787 -3.46887
247 1 0.174382 8.13738 -0.995961 -3.50398
248 1 3.55177 6.36846 -2.7303 -3.45592
249 1 5.34652 8.29013 -2.85935 -3.51274
250 1 5.3115 6.32392 -0.873825 -3.48929
251 1 3.49646 8.09812 -0.881908 -3.50137
252 1 6.98881 6.29988 -2.73878 -3.48711
253 1 8.79167 8.03201 -2.57101 -3.47073
254 1 8.83146 6.3198 -0.849405 -3.49488
255 1 7.04544 8.13443 -0.946602 -3.43355
256 1 10.6822 6.38198 -2.69524 -3.52375
257 1 12.5916 7.93169 -2.56195 -3.45002
258 1 12.3865 6.22439 -0.624708 -3.49899
259 1 10.7049 7.97867 -0.605898 -3.50573
260 1 14.257 6.20448 -2.49151 -3.33869
261 1 15.9117 5.90041 -0.715164 -2.79107
262 1 14.2924 7.83883 -0.510156 -3.13345
263 1 -14.4197 9.00792 45.6434 -2.89889
264 1 -12.7343 10.8763 45.5769 -2.8764
265 1 -12.2566 10.5366 -0.812525 -3.11656
266 1 -10.3322 10.3512 46.1401 -3.45315
267 1 -8.67351 12.2429 -2.88771 -3.33028
268 1 -8.72091 10.1644 -0.916943 -3.44361
269 1 -10.4804 12.1797 -0.991066 -3.18874
270 1 -7.1253 10.3141 46.3448 -3.49588
271 1 -5.13251 12.0836 -2.64994 -3.47581
272 1 -5.2409 9.92296 -0.814534 -3.50551
273 1 -6.91854 11.9369 -0.829643 -3.52409
274 1 -3.39092 10.1985 -2.64792 -3.4378
275 1 -1.51315 11.775 -2.6868 -3.49783
276 1 -1.6387 10.0773 -0.751875 -3.46005
277 1 -3.34087 11.699 -0.78535 -3.46043
278 1 0.267182 10.0539 -2.54479 -3.48884
279 1 1.9723 11.8631 -2.54702 -3.49578
280 1 1.95326 9.89816 -0.639978 -3.45929
281 1 0.274547 11.7558 -0.687156 -3.54727
282 1 3.54758 10.0448 -2.63636 -3.47329
283 1 5.32821 11.7255 -2.31283 -3.51855
284 1 5.35243 9.84404 -0.631277 -3.52283
285 1 3.53114 11.7329 -0.500253 -3.48879
286 1 7.13501 9.94637 -2.54508 -3.50086
287 1 9.03726 11.6125 -2.29123 -3.44308
288 1 8.95305 9.87058 -0.528155 -3.4905
289 1 7.10934 11.5851 -0.511525 -3.47979
290 1 10.7468 9.61501 -2.50608 -3.52379
291 1 12.5651 11.4792 -2.35439 -2.84927
292 1 12.5085 9.68926 -0.625857 -3.32288
293 1 10.8347 11.4646 -0.571836 -3.30066
294 1 14.3267 9.63493 -2.39058 -2.70833
295 1 -11.0539 12.638 45.6389 -2.72639
296 1 -8.65427 13.7536 -0.911172 -2.95125
297 1 -6.77402 13.7983 -2.76029 -3.21138
298 1 -4.93289 15.5939 -2.38973 -2.82902
299 1 -4.91908 13.5739 -0.739854 -3.4217
300 1 -6.65451 15.1974 -0.563711 -2.74053
301 1 -3.1263 13.7767 -2.48292 -3.49959
302 1 -1.38983 15.6244 -2.23795 -3.09369
303 1 -1.57627 13.5809 -0.495703 -3.49102
304 1 -3.25847 15.4663 -0.453536 -3.02346
305 1 0.167225 13.6522 -2.48976 -3.49796
306 1 2.00688 15.2578 -2.22554 -3.08351
307 1 1.94378 13.6334 -0.469541 -3.42874
308 1 0.142888 15.2647 -0.476431 -3.1069
309 1 3.63989 13.5918 -2.25204 -3.4129
310 1 5.70917 15.2189 -2.02657 -2.99531
311 1 5.33441 13.3293 -0.363944 -3.45731
312 1 3.91421 15.3752 -0.145821 -2.96816
313 1 7.35561 13.2981 -2.11944 -3.34005
314 1 9.17998 13.4078 -0.421049 -3.08678
315 1 7.32853 15.0153 -0.0945274 -2.75385
316 1 10.9253 13.1345 -2.30654 -2.70558
317 1 0.573289 17.2687 -2.69065 -2.31223
318 1 -5.46856 -14.7268 1.38278 -3.01395
319 1 -7.21861 -14.7197 3.40262 -2.75703
320 1 -2.09815 -15.0623 1.42552 -2.95689
321 1 -3.94728 -14.9909 3.36234 -2.8757
322 1 2.16847 -15.3875 0.123025 -2.95171
323 1 3.67917 -15.5324 2.17583 -2.51318
324 1 0.362999 -15.5157 1.96886 -2.7311
325 1 5.58429 -13.7743 2.48184 -3.06211
326 1 3.80723 -13.9471 4.24296 -3.14302
327 1 7.25752 -13.7457 4.2404 -2.74201
328 1 -12.5992 -11.3116 1.68702 -2.81112
329 1 -10.6069 -13.0931 1.51232 -2.68057
330 1 -9.17017 -11.1409 1.68371 -3.4753
331 1 -9.19946 -13.107 3.39973 -3.017
332 1 -10.8063 -11.329 3.66064 -3.32344
333 1 -7.37714 -12.9364 1.60475 -3.37607
334 1 -5.53308 -11.3776 1.76456 -3.47606
335 1 -5.56023 -13.1257 3.58333 -3.37782
336 1 -7.48441 -11.5009 3.63517 -3.51022
337 1 -3.68579 -13.0788 1.7502 -3.48676
338 1 -1.90843 -11.3234 1.80375 -3.48707
339 1 -2.02065 -13.3399 3.6933 -3.37667
340 1 -3.8193 -11.5085 3.82742 -3.48347
341 1 -0.336816 -13.192 1.57012 -3.4121
342 1 1.54776 -13.0953 -0.186189 -3.49855
343 1 2.09549 -13.7885 2.13806 -3.32001
344 1 -0.160395 -11.5791 3.85464 -3.44875
345 1 3.97504 -13.8411 0.225866 -3.31988
346 1 5.69692 -11.8617 0.431853 -3.46408
347 1 5.62442 -11.995 4.34927 -3.43028
348 1 3.95013 -12.0811 2.41395 -3.466
349 1 7.38287 -12.1052 2.26289 -3.35305
350 1 9.20961 -10.244 2.49285 -3.49009
351 1 9.23139 -12.3446 4.13605 -3.06739
352 1 7.53423 -10.5084 4.50418 -3.51137
353 1 11.0085 -11.9088 2.43805 -2.72454
354 1 12.6546 -10.2159 2.70776 -2.88493
355 1 10.8917 -10.4678 4.54493 -3.33254
356 1 -14.2279 -9.33071 1.49476 -2.70574
357 1 -12.4751 -7.70689 1.83649 -3.38343
358 1 -12.6769 -9.63611 3.67301 -3.287
359 1 -14.2007 -7.77784 3.66205 -3.10519
360 1 -10.9358 -9.46333 1.94558 -3.39169
361 1 -9.08904 -7.88995 1.93958 -3.49028
362 1 -9.16721 -9.54071 3.84377 -3.45382
363 1 -10.9861 -7.85881 3.78426 -3.50174
364 1 -7.24149 -9.50534 1.74379 -3.51514
365 1 -5.47329 -7.74269 1.87922 -3.53176
366 1 -5.56974 -9.71263 3.65888 -3.48667
367 1 -7.35838 -8.00738 3.85637 -3.48331
368 1 -3.81628 -9.67879 1.95155 -3.48607
369 1 -2.05285 -9.43782 0.016271 -3.47325
370 1 -1.97735 -9.83976 3.86504 -3.45866
371 1 -3.70284 -8.1756 3.91864 -3.47077
372 1 -0.288016 -11.261 -0.270424 -3.50368
373 1 1.6011 -9.5102 -0.0619657 -3.47841
374 1 1.27835 -11.4892 1.75814 -3.45292
375 1 -0.300156 -9.60976 2.05405 -3.4669
376 1 3.27983 -11.334 -0.155189 -3.49977
377 1 5.00627 -9.47645 -0.0169714 -3.46549
378 1 5.71569 -10.1998 2.62275 -3.42866
379 1 3.20159 -9.76599 1.88951 -3.50884
380 1 7.44081 -10.0779 0.694447 -3.51017
381 1 9.29048 -8.31096 0.851464 -3.47584
382 1 9.13784 -8.63261 4.6404 -3.50709
383 1 7.39014 -8.60636 2.82254 -3.44409
384 1 10.9512 -8.33018 2.62503 -3.41759
385 1 12.7284 -6.91392 2.79119 -3.39065
386 1 12.7021 -8.77895 4.63009 -3.30296
387 1 10.9448 -6.85647 4.7796 -3.4921
388 1 14.5831 -8.49161 2.72296 -2.70827
389 1 14.4965 -7.06615 4.86024 -3.10697
390 1 -16.0488 -3.98587 2.17104 -2.97355
391 1 -15.9467 -5.75488 3.95195 -2.73869
392 1 -14.4017 -5.94267 1.98649 -3.35834
393 1 -12.4449 -4.0114 2.12219 -3.48007
394 1 -12.5668 -5.93166 3.84204 -3.4688
395 1 -14.0468 -4.05158 3.98404 -3.43357
396 1 -10.8765 -5.87337 2.09982 -3.47884
397 1 -9.0599 -4.22591 2.20406 -3.49896
398 1 -9.01729 -6.03447 3.90087 -3.48318
399 1 -10.7146 -4.27564 3.97856 -3.45406
400 1 -7.26869 -6.10835 2.02628 -3.52233
401 1 -5.49934 -5.86636 0.15851 -3.50846
402 1 -5.4592 -6.24249 4.00608 -3.54781
403 1 -7.23963 -4.35589 4.004 -3.51959
404 1 -3.61273 -7.68803 0.0553631 -3.44193
405 1 -1.99062 -5.97776 0.108976 -3.48726
406 1 -2.08807 -7.8638 2.04755 -3.5025
407 1 -3.59179 -5.85897 2.01479 -3.43767
408 1 -0.128178 -7.81438 0.168074 -3.51377
409 1 1.58028 -5.98428 0.323676 -3.4874
410 1 1.47509 -7.75852 2.04188 -3.44396
411 1 -0.280163 -6.14991 2.1466 -3.50366
412 1 3.29467 -7.70487 0.192471 -3.46141
413 1 5.04759 -6.0609 0.340156 -3.47793
414 1 4.94389 -7.8591 2.09044 -3.50368
415 1 3.28063 -6.07013 2.26208 -3.50251
416 1 7.01999 -7.58051 0.162671 -3.48777
417 1 8.75649 -5.92093 0.54197 -3.50588
418 1 9.08383 -6.7378 2.94053 -3.48633
419 1 6.83188 -6.2001 2.29699 -3.49536
420 1 11.1319 -6.72735 0.858548 -3.37632
421 1 12.796 -4.73314 1.02263 -3.46924
422 1 12.7165 -5.18149 4.94601 -3.51942
423 1 11.0415 -5.1826 2.95269 -3.52331
424 1 14.6608 -5.15059 2.99371 -3.31733
425 1 16.4599 -3.20299 3.27706 -2.99924
426 1 16.1832 -5.18531 4.77239 -2.73182
427 1 14.473 -3.33896 5.09448 -3.46447
428 1 -16.3197 -0.855124 2.04571 -2.96323
429 1 -15.9881 -2.45752 4.17135 -3.05019
430 1 -14.3591 -2.1331 2.1103 -3.43472
431 1 -12.4653 -0.519477 2.38761 -3.47812
432 1 -12.4941 -2.22435 4.1681 -3.44763
433 1 -14.2947 -0.634234 4.10165 -3.39788
434 1 -10.7101 -2.3285 2.32242 -3.49792
435 1 -9.00465 -2.33092 0.39795 -3.5046
436 1 -9.01938 -2.53063 4.11968 -3.48643
437 1 -10.6202 -0.660458 4.46061 -3.49986
438 1 -7.19718 -4.17209 0.243846 -3.50097
439 1 -5.43813 -2.43417 0.514754 -3.46267
440 1 -5.43587 -4.35507 2.26413 -3.50462
441 1 -7.13104 -2.52924 2.18381 -3.48344
442 1 -3.66418 -4.10422 0.126907 -3.50969
443 1 -1.94699 -2.28808 0.216321 -3.47152
444 1 -1.88285 -4.19848 2.18752 -3.43972
445 1 -3.54356 -2.47239 2.34948 -3.48843
446 1 -0.131257 -4.20252 0.312135 -3.51816
447 1 1.54778 -2.44073 0.36383 -3.48544
448 1 1.48955 -4.40302 2.34333 -3.52226
449 1 -0.23258 -2.55964 2.50614 -3.4459
450 1 3.33568 -4.22881 0.334722 -3.522
451 1 5.13762 -2.40269 0.583251 -3.51015
452 1 5.12195 -4.35389 2.18522 -3.49448
453 1 3.27661 -2.65073 2.38669 -3.49178
454 1 6.79314 -4.25524 0.312646 -3.50358
455 1 8.62653 -2.47478 0.584661 -3.49772
456 1 8.52555 -4.22275 2.46584 -3.45843
457 1 6.82512 -2.6248 2.49347 -3.43723
458 1 10.4692 -4.06582 0.524585 -3.45522
459 1 12.2596 -2.47227 0.63497 -3.4158
460 1 12.7503 -3.29041 3.17327 -3.45447
461 1 10.4565 -2.72654 2.68635 -3.4903
462 1 14.6818 -3.18877 1.26448 -3.43794
463 1 16.5069 -1.41597 1.4194 -3.02544
464 1 16.2596 -1.64103 5.33973 -3.01783
465 1 14.5099 -1.66122 3.2745 -3.43557
466 1 -17.0644 1.26914 2.71653 -2.65427
467 1 -15.8855 3.42075 2.33442 -3.11511
468 1 -16.0238 0.844854 4.8017 -2.99469
469 1 -14.5834 1.04969 2.20029 -3.52311
470 1 -12.5737 1.14445 0.499056 -3.47078
471 1 -12.5288 0.99025 4.26957 -3.45329
472 1 -14.3613 2.63301 4.36082 -3.55906
473 1 -10.6793 -0.514476 0.35828 -3.50575
474 1 -8.83135 1.33738 0.627888 -3.50743
475 1 -8.89691 -0.60404 2.4516 -3.49549
476 1 -10.5967 1.15906 2.41836 -3.49455
477 1 -7.20527 -0.499625 0.448328 -3.51197
478 1 -5.3156 1.1867 0.581451 -3.49111
479 1 -5.42815 -0.747235 2.31418 -3.49859
480 1 -7.07314 1.17245 2.38945 -3.47568
481 1 -3.80232 -0.660268 0.331872 -3.46997
482 1 -1.8542 0.990323 0.540132 -3.51558
483 1 -1.8519 -0.7456 2.34818 -3.49713
484 1 -3.63479 0.979504 2.4812 -3.51562
485 1 -0.190263 -0.766956 0.465629 -3.45308
486 1 1.55317 1.06717 0.675014 -3.48468
487 1 1.56776 -0.947549 2.41299 -3.47421
488 1 0.0490247 0.886155 2.54318 -3.47615
489 1 3.31712 -0.576705 0.538697 -3.49825
490 1 5.21145 1.07506 0.786013 -3.48453
491 1 5.0341 -0.94509 2.63627 -3.47556
492 1 3.39729 0.976219 2.58383 -3.53018
493 1 6.92902 -0.701475 0.745221 -3.49403
494 1 8.77811 0.935375 1.09802 -3.4284
495 1 8.62021 -0.980841 2.76404 -3.52268
496 1 6.71816 0.738378 2.91423 -3.48848
497 1 10.4429 -0.861154 0.924456 -3.49098
498 1 12.2812 0.905957 0.834959 -3.49693
499 1 12.2042 -1.00014 2.76228 -3.49047
500 1 10.3972 0.79585 2.86617 -3.41675
501 1 14.0872 -0.916038 0.833031 -3.47741
502 1 15.7608 0.985301 1.04128 -3.26912
503 1 16.3021 0.0524631 3.4947 -3.02645
504 1 14.0029 0.732267 2.81658 -3.49595
505 1 17.4842 1.00825 -0.726295 -2.53224
506 1 -15.4651 5.0005 0.484207 -3.00041
507 1 -15.6409 4.87645 4.64193 -3.09249
508 1 -14.2157 2.96197 0.516188 -3.43221
509 1 -12.5487 4.68747 0.703774 -3.51992
510 1 -12.5704 2.69892 2.49533 -3.51595
511 1 -14.0367 4.74992 2.71021 -3.37534
512 1 -10.6856 3.05131 0.685887 -3.51246
513 1 -8.84212 4.67914 0.669218 -3.49439
514 1 -8.87002 2.90671 2.56926 -3.5048
515 1 -10.8727 4.53952 2.6627 -3.51934
516 1 -6.9081 3.03817 0.703981 -3.45559
517 1 -5.36312 4.90848 0.942118 -3.45772
518 1 -5.44639 2.86575 2.54354 -3.40155
519 1 -7.11654 4.524 2.70956 -3.4534
520 1 -3.4535 2.87343 0.712319 -3.49049
521 1 -1.91016 4.64734 0.941179 -3.46941
522 1 -1.75728 2.62066 2.68743 -3.49872
523 1 -3.66622 4.52183 2.84105 -3.50964
524 1 -0.108933 2.82983 0.732462 -3.52095
525 1 1.69856 4.59941 0.961668 -3.49832
526 1 1.73524 2.81836 2.69267 -3.49138
527 1 -0.161345 4.45669 2.76192 -3.44891
528 1 3.4678 2.89384 0.759052 -3.53348
529 1 5.20899 4.69441 1.01065 -3.50504
530 1 5.17711 2.76244 2.81266 -3.51331
531 1 3.41594 4.56858 2.84149 -3.4674
532 1 6.92268 2.8196 0.790097 -3.47701
533 1 8.80918 4.53164 1.16965 -3.50868
534 1 8.55317 2.60547 2.85048 -3.50307
535 1 6.91413 4.54465 2.89959 -3.47619
536 1 10.4985 2.62888 0.946254 -3.48568
537 1 12.2701 4.43072 1.13901 -3.47468
538 1 12.1051 2.3652 2.78305 -3.40161
539 1 10.6424 4.37637 3.1764 -3.50113
540 1 13.9064 2.72356 1.07479 -3.44639
541 1 15.8819 4.2942 1.30955 -2.99735
542 1 15.8456 2.50501 3.08478 -3.12077
543 1 13.8556 4.24679 3.00949 -3.47752
544 1 -15.7594 6.34412 2.6965 -2.73579
545 1 -14.0085 6.72958 0.946376 -3.26493
546 1 -12.185 8.43617 0.993001 -3.4544
547 1 -12.2884 6.56062 2.70046 -3.47238
548 1 -14.0761 8.36857 2.88009 -3.08657
549 1 -10.6662 6.30897 0.835198 -3.49533
550 1 -8.96932 8.21661 0.939586 -3.50548
551 1 -8.89606 6.19552 2.79565 -3.50941
552 1 -10.4583 8.17842 2.92262 -3.46191
553 1 -7.19196 6.47493 0.755723 -3.46968
554 1 -5.33443 8.14864 0.881648 -3.50553
555 1 -5.30069 6.36667 2.87732 -3.4734
556 1 -7.07048 8.01469 2.90701 -3.50204
557 1 -3.47848 6.5184 0.924265 -3.46823
558 1 -1.61587 8.26187 1.14697 -3.52225
559 1 -1.66134 6.28132 2.9357 -3.46611
560 1 -3.40786 8.05928 2.87129 -3.50145
561 1 0.063953 6.3829 1.0168 -3.47252
562 1 1.69502 8.05045 1.15624 -3.46202
563 1 1.74236 6.24593 3.01913 -3.4633
564 1 0.142239 7.95568 3.15871 -3.49166
565 1 3.44576 6.37705 1.02022 -3.47309
566 1 5.08877 8.04077 1.3172 -3.434
567 1 5.11871 6.30564 3.15742 -3.5093
568 1 3.34569 8.10177 3.17296 -3.50016
569 1 7.02489 6.39076 1.20871 -3.50851
570 1 8.83692 7.98702 1.14371 -3.46096
571 1 8.80827 6.13699 3.10205 -3.49321
572 1 6.99607 7.90568 3.33461 -3.48397
573 1 10.5576 6.28866 1.2217 -3.48257
574 1 12.4323 7.84296 1.45731 -3.39356
575 1 12.3101 6.20184 3.19048 -3.46863
576 1 10.5787 7.86746 3.18284 -3.48883
577 1 14.1229 5.98886 1.24621 -3.37337
578 1 15.8869 5.88076 3.16243 -2.68266
579 1 14.2167 7.80722 3.25064 -3.08621
580 1 -13.8584 10.2248 1.17227 -2.68615
581 1 -12.0223 12.0069 1.13189 -2.82881
582 1 -12.1504 10.0133 3.13441 -3.33173
583 1 -10.5017 10.1657 0.951136 -3.42481
584 1 -8.76116 11.8859 0.994632 -3.42824
585 1 -8.70498 10.0204 2.97627 -3.49736
586 1 -10.5306 11.9748 3.10274 -3.26423
587 1 -7.10989 9.95221 0.98385 -3.53155
588 1 -5.21238 11.7677 1.18684 -3.51574
589 1 -5.35195 9.76286 2.93359 -3.53993
590 1 -6.98601 11.6842 3.06278 -3.45066
591 1 -3.56803 9.89712 1.21565 -3.48612
592 1 -1.70008 11.5938 1.225 -3.49562
593 1 -1.64629 9.8504 3.16293 -3.47853
594 1 -3.42792 11.3785 3.10807 -3.45062
595 1 0.148425 9.98919 1.20527 -3.48741
596 1 1.87791 11.7483 1.30006 -3.47225
597 1 1.72215 9.96329 3.30135 -3.51416
598 1 -0.010221 11.6763 3.09134 -3.48242
599 1 3.47128 9.80504 1.2928 -3.50828
600 1 5.40263 11.4971 1.40226 -3.51067
601 1 5.21245 9.60521 3.29213 -3.50965
602 1 3.52907 11.5781 3.25713 -3.47806
603 1 6.99713 9.62546 1.3031 -3.52684
604 1 8.87061 11.3971 1.32991 -3.40566
605 1 8.75332 9.58302 3.27672 -3.46728
606 1 7.00391 11.2678 3.32702 -3.47785
607 1 10.6106 9.67176 1.36846 -3.50383
608 1 12.4139 11.397 1.47992 -2.85507
609 1 12.4063 9.50838 3.25327 -3.29245
610 1 10.4826 11.1734 3.29302 -3.31952
611 1 14.0147 9.58781 1.31425 -2.72
612 1 -10.158 13.7712 1.10398 -2.63643
613 1 -8.55162 13.5475 3.29268 -3.10069
614 1 -6.8405 13.5412 1.30495 -3.3247
615 1 -5.03487 15.1552 1.36589 -3.00525
616 1 -5.07721 13.2614 3.31769 -3.47119
617 1 -6.69852 15.2343 3.40914 -2.70753
618 1 -3.32806 13.3695 1.34362 -3.45829
619 1 -1.60232 15.221 1.53633 -3.15892
620 1 -1.72361 13.4422 3.20104 -3.36173
621 1 -3.44706 15.1648 3.27004 -3.04486
622 1 0.240865 13.5218 1.30068 -3.47961
623 1 2.06253 15.2067 1.72634 -3.12701
624 1 1.82317 13.2045 3.47406 -3.42291
625 1 0.0730726 14.7721 3.47446 -3.06961
626 1 3.71555 13.3717 1.43364 -3.45786
627 1 5.51655 15.0159 1.72171 -2.9698
628 1 5.41543 13.1188 3.33801 -3.46295
629 1 3.77159 15.0461 3.52599 -3.04515
630 1 7.14749 13.1491 1.50215 -3.37346
631 1 8.72264 12.9873 3.45184 -3.1242
632 1 7.13279 14.9614 3.36983 -2.6941
633 1 10.4841 12.9995 1.63653 -2.75761
634 1 0.180614 16.7752 2.35332 -2.38022
635 1 -5.52956 -15.0811 5.30734 -2.80424
636 1 -7.52862 -15.1984 7.01069 -2.45746
637 1 -1.41381 -14.2046 6.0307 -3.00163
638 1 -3.27919 -14.3075 7.78759 -3.00984
639 1 0.359871 -13.9903 4.06074 -3.1451
640 1 2.09205 -14.106 5.96877 -3.00274
641 1 0.311502 -14.3632 8.06938 -3.08745
642 1 5.48512 -14.1004 6.22819 -2.97547
643 1 3.67127 -14.3455 8.05342 -2.98862
644 1 7.20187 -14.2069 8.13268 -2.69121
645 1 -12.7848 -11.3901 5.65031 -2.81086
646 1 -10.9319 -13.0604 5.50471 -2.72073
647 1 -9.25743 -11.376 5.81593 -3.38248
648 1 -9.24027 -13.2747 7.50493 -3.13725
649 1 -11.053 -11.4208 7.59518 -3.33538
650 1 -7.74111 -13.2743 5.42626 -3.34705
651 1 -5.73227 -11.5953 5.62928 -3.486
652 1 -5.86378 -13.5757 7.3816 -3.31748
653 1 -7.45399 -11.6251 7.4662 -3.44652
654 1 -3.89886 -13.3502 5.51091 -3.3337
655 1 -2.08571 -11.663 5.68432 -3.49614
656 1 -1.34823 -12.6448 8.11906 -3.3603
657 1 -3.87452 -11.9453 7.66772 -3.49881
658 1 0.235247 -12.4161 6.30023 -3.44153
659 1 2.07898 -12.1385 4.29944 -3.41008
660 1 2.12749 -12.4373 8.08005 -3.39925
661 1 0.157271 -10.9002 8.23152 -3.45637
662 1 3.61862 -12.3244 6.19332 -3.3946
663 1 5.67287 -10.6395 6.46261 -3.52105
664 1 5.53152 -12.5071 8.11978 -3.38022
665 1 3.80997 -10.8765 8.32093 -3.43223
666 1 7.59948 -12.3981 6.19815 -3.36343
667 1 9.19781 -10.4219 6.40253 -3.36546
668 1 9.17296 -12.5364 8.23249 -3.05481
669 1 7.36459 -10.8625 8.39978 -3.52266
670 1 10.571 -12.2732 6.33748 -2.73315
671 1 12.6201 -10.4094 6.51611 -2.88697
672 1 10.8447 -10.7614 8.37356 -3.34023
673 1 -14.3945 -9.5693 5.82195 -2.65979
674 1 -12.6542 -7.83301 5.73238 -3.46294
675 1 -12.8683 -9.6889 7.58851 -3.27701
676 1 -14.5164 -7.73076 7.67904 -3.08514
677 1 -11.0442 -9.7538 5.92289 -3.40186
678 1 -9.25188 -8.0686 5.85211 -3.50535
679 1 -9.0518 -9.83503 7.75079 -3.46253
680 1 -10.8241 -8.12427 7.82625 -3.44661
681 1 -7.44199 -9.8116 5.70414 -3.49135
682 1 -5.56616 -8.05792 5.74968 -3.50395
683 1 -5.66865 -9.92632 7.71703 -3.49541
684 1 -7.34543 -8.21471 7.70153 -3.4403
685 1 -3.9929 -9.99776 5.84767 -3.48695
686 1 -2.09961 -8.17863 5.96813 -3.47687
687 1 -2.25156 -10.0546 7.66562 -3.50051
688 1 -3.7703 -8.09393 7.8011 -3.46861
689 1 -0.449338 -9.92955 5.85385 -3.46704
690 1 1.40051 -9.80161 4.03003 -3.46512
691 1 1.89448 -10.6534 6.3292 -3.48648
692 1 -0.279902 -8.34658 7.76062 -3.5154
693 1 3.81223 -10.3958 4.56992 -3.45372
694 1 5.55301 -8.74286 4.57125 -3.50118
695 1 5.46908 -9.03931 8.51166 -3.51523
696 1 3.75578 -8.96712 6.63204 -3.51289
697 1 7.37455 -8.90338 6.47678 -3.46949
698 1 9.15904 -7.07873 6.76496 -3.49178
699 1 9.21505 -8.92746 8.49663 -3.50322
700 1 7.28643 -7.30008 8.55042 -3.50122
701 1 10.9046 -8.71941 6.78309 -3.39718
702 1 12.7564 -7.16857 6.59878 -3.43432
703 1 12.6922 -9.04421 8.58334 -3.33492
704 1 11.0188 -7.25828 8.71837 -3.45748
705 1 14.5235 -8.74255 6.70137 -2.68229
706 1 14.51 -7.25484 8.68218 -3.11716
707 1 -16.1346 -4.32197 5.97938 -2.94973
708 1 -16.1917 -6.08278 7.73987 -2.69164
709 1 -14.4178 -6.13841 5.80425 -3.33062
710 1 -12.4834 -4.43101 6.10716 -3.47632
711 1 -12.3546 -6.3464 7.66473 -3.4654
712 1 -14.1521 -4.56796 7.85538 -3.46939
713 1 -10.7359 -6.08471 5.6728 -3.4446
714 1 -9.08622 -4.39897 5.877 -3.46963
715 1 -9.0218 -6.28114 7.82185 -3.5072
716 1 -10.62 -4.46373 7.90317 -3.42355
717 1 -7.36355 -6.28433 5.8005 -3.52182
718 1 -5.56247 -4.61774 5.95302 -3.49742
719 1 -5.63327 -6.49148 7.77693 -3.46198
720 1 -7.16058 -4.58236 8.00819 -3.50189
721 1 -3.8452 -6.35145 5.96817 -3.48652
722 1 -2.14475 -6.16935 3.96702 -3.4957
723 1 -2.11764 -6.31282 7.98534 -3.45073
724 1 -3.90864 -4.7204 7.96504 -3.49676
725 1 -0.401521 -8.04274 4.12201 -3.50096
726 1 1.39653 -6.41294 4.06754 -3.42639
727 1 1.45661 -8.14384 5.99764 -3.53637
728 1 -0.455283 -6.38929 6.10939 -3.47538
729 1 3.11463 -7.96331 4.02417 -3.46133
730 1 5.06829 -6.25161 4.17554 -3.47803
731 1 5.59186 -7.23508 6.58878 -3.49749
732 1 3.25057 -6.4601 6.14624 -3.46699
733 1 7.33468 -6.92153 4.87343 -3.5132
734 1 9.23325 -5.1758 4.95666 -3.49652
735 1 9.00705 -5.57485 8.76579 -3.44395
736 1 7.37187 -5.32004 6.85457 -3.51795
737 1 10.9292 -5.42313 6.93509 -3.5203
738 1 12.6831 -3.63745 7.02631 -3.51578
739 1 12.7224 -5.39881 8.77724 -3.47053
740 1 10.7631 -3.78575 8.87933 -3.53209