ITEM: TIMESTEP
20000
ITEM: NUMBER OF ATOMS
3804
ITEM: BOX BOUNDS ss ss pp
-1.8100455077771432e+01 1.7917990911752668e+01
-1.7950445992709593e+01 1.8156948386381629e+01
-4.3380000000000002e-01 4.3813800000000001e+01
ITEM: ATOMS id type x y z c_peratom
1 1 -5.3156 -16.2621 -0.373245 -2.98739
2 1 -6.96293 -16.2468 1.51406 -2.71321
3 1 -1.82524 -16.1868 -0.650901 -3.1122
4 1 -3.41749 -16.3622 1.39261 -3.02597
5 1 -0.0640136 -17.7602 -0.313924 -2.39122
6 1 1.93462 -16.2699 -0.441796 -3.15254
7 1 -0.0417471 -16.1141 1.40254 -3.21336
8 1 5.43798 -16.0531 -0.353923 -3.01268
9 1 3.8096 -16.1561 1.45967 -3.05296
10 1 6.91803 -16.0913 1.66999 -2.75787
11 1 -12.396 -12.5844 -0.325674 -2.88333
12 1 -10.5941 -14.4821 -0.330583 -2.73639
13 1 -8.83733 -12.751 -0.403602 -3.47018
14 1 -8.98106 -14.603 1.50403 -3.07194
15 1 -10.758 -12.6244 1.35491 -3.32638
16 1 -7.1582 -14.4952 -0.308196 -3.38491
17 1 -5.33416 -12.5949 -0.389138 -3.53032
18 1 -5.30256 -14.3294 1.41118 -3.44812
19 1 -7.11589 -12.4766 1.36575 -3.44861
20 1 -3.58264 -14.5368 43.8803 -3.4583
21 1 -1.76978 -12.7223 43.9866 -3.48285
22 1 -1.80904 -14.3959 1.51345 -3.47434
23 1 -3.55716 -12.6969 1.52829 -3.44308
24 1 -0.0331715 -14.4763 43.7203 -3.51858
25 1 1.9269 -12.6982 43.8349 -3.49762
26 1 1.78315 -14.5047 1.21206 -3.42539
27 1 0.0917177 -12.6235 1.54514 -3.519
28 1 3.64348 -14.4371 43.8179 -3.44853
29 1 5.66903 -12.7442 43.862 -3.4901
30 1 5.40972 -14.3329 1.42765 -3.41108
31 1 3.59095 -12.5557 1.51305 -3.49573
32 1 7.41474 -14.4762 43.8738 -3.3512
33 1 8.93077 -12.6118 43.7671 -3.44145
34 1 8.88894 -14.4225 1.61072 -3.11867
35 1 7.21775 -12.6144 1.5499 -3.47955
36 1 10.4528 -14.4925 43.9909 -2.71768
37 1 12.7381 -12.6968 -0.563017 -2.74545
38 1 11.0151 -12.8499 1.44174 -3.29682
39 1 -14.2091 -10.7699 43.8989 -2.74117
40 1 -12.4641 -9.00927 -0.382377 -3.46961
41 1 -12.5931 -10.673 1.44933 -3.30384
42 1 -14.3874 -8.95135 1.40423 -3.12094
43 1 -10.607 -10.8187 -0.454448 -3.53545
44 1 -8.94876 -8.89183 -0.546426 -3.52088
45 1 -8.8768 -10.8491 1.34412 -3.4789
46 1 -10.7212 -8.99582 1.33301 -3.49774
47 1 -7.16588 -10.764 43.8214 -3.49798
48 1 -5.23374 -9.09628 43.9278 -3.48166
49 1 -5.15883 -10.8527 1.53439 -3.51102
50 1 -7.05352 -8.96345 1.3107 -3.51533
51 1 -3.39104 -10.875 43.8834 -3.45865
52 1 -1.77689 -9.00065 -0.462682 -3.50969
53 1 -1.7245 -10.8489 1.32459 -3.47768
54 1 -3.50786 -9.05353 1.27253 -3.46503
55 1 -0.000117915 -10.796 43.7671 -3.53173
56 1 1.77892 -9.07732 43.8383 -3.51146
57 1 1.78331 -10.8441 1.46525 -3.5227
58 1 -0.034167 -9.05562 1.4358 -3.52861
59 1 3.64925 -10.7905 43.7293 -3.50804
60 1 5.37055 -8.93071 43.7985 -3.52465
61 1 5.44287 -10.8942 1.36866 -3.52084
62 1 3.58171 -9.11914 1.3261 -3.50659
63 1 7.24064 -10.8658 43.8299 -3.51033
64 1 9.17239 -9.11478 -0.386253 -3.51686
65 1 9.05635 -10.838 1.45939 -3.50124
66 1 7.19531 -8.93255 1.34164 -3.51952
67 1 10.8618 -10.9485 43.8349 -3.48567
68 1 12.3591 -9.06936 43.8072 -3.4534
69 1 12.6477 -10.8372 1.38124 -3.30954
70 1 10.8159 -9.10895 1.49699 -3.45097
71 1 14.2244 -10.7807 43.8698 -2.7413
72 1 14.3974 -9.09803 1.57311 -3.07217
73 1 -16.1616 -5.47337 -0.547209 -2.95508
74 1 -16.1736 -7.01082 1.48283 -2.76376
75 1 -14.5664 -7.16461 43.9129 -3.30837
76 1 -12.6013 -5.38958 43.9017 -3.52516
77 1 -12.6648 -7.30484 1.3462 -3.4959
78 1 -14.3177 -5.31574 1.46416 -3.46419
79 1 -10.7707 -7.13164 43.6706 -3.5115
80 1 -8.82947 -5.49893 43.7992 -3.50266
81 1 -8.96642 -7.24169 1.38055 -3.50587
82 1 -10.7585 -5.32049 1.40212 -3.49893
83 1 -6.99865 -7.30608 43.7164 -3.49931
84 1 -5.25374 -5.53049 -0.499707 -3.5122
85 1 -5.30563 -7.19731 1.39574 -3.51211
86 1 -7.13548 -5.47039 1.3393 -3.51407
87 1 -3.43809 -7.11394 43.8599 -3.49995
88 1 -1.65243 -5.36836 -0.398382 -3.51069
89 1 -1.76784 -7.18178 1.4249 -3.51752
90 1 -3.52258 -5.39685 1.40647 -3.5064
91 1 0.00448554 -7.20061 -0.443487 -3.53204
92 1 1.81962 -5.47741 -0.473292 -3.52151
93 1 1.88377 -7.33582 1.35674 -3.47127
94 1 0.153704 -5.51768 1.42826 -3.48234
95 1 3.53803 -7.28856 43.9284 -3.45749
96 1 5.31938 -5.47004 43.9122 -3.49943
97 1 5.44083 -7.19484 1.54633 -3.49066
98 1 3.65302 -5.50308 1.51895 -3.50362
99 1 7.24915 -7.11591 -0.394939 -3.50103
100 1 8.89434 -5.34833 -0.487755 -3.48371
101 1 9.06994 -7.24716 1.38719 -3.53635
102 1 7.27774 -5.30581 1.43662 -3.51535
103 1 10.8004 -7.18223 -0.591536 -3.52272
104 1 12.6445 -5.33451 -0.513701 -3.51147
105 1 12.4906 -7.30223 1.40572 -3.52313
106 1 10.9219 -5.35417 1.24201 -3.49924
107 1 14.172 -7.35754 -0.533706 -3.37005
108 1 15.8726 -5.403 -0.456901 -3.02714
109 1 15.7673 -7.14292 1.40685 -2.77139
110 1 14.184 -5.27806 1.48007 -3.39248
111 1 -16.0799 -1.81658 43.6576 -3.12577
112 1 -16.2809 -3.76581 1.35905 -2.98553
113 1 -14.491 -3.78585 -0.431405 -3.41887
114 1 -12.4752 -1.76552 -0.440266 -3.52441
115 1 -12.4768 -3.49882 1.36739 -3.4865
116 1 -14.3738 -1.88286 1.44622 -3.51157
117 1 -10.4771 -3.67691 43.6629 -3.49451
118 1 -8.99239 -1.71612 43.7783 -3.46206
119 1 -8.88644 -3.64895 1.36575 -3.5282
120 1 -10.6649 -1.7663 1.33731 -3.50758
121 1 -7.12254 -3.75176 43.7455 -3.52119
122 1 -5.23709 -1.89077 -0.366118 -3.47327
123 1 -5.37289 -3.64032 1.40082 -3.51329
124 1 -7.1505 -1.726 1.27887 -3.50702
125 1 -3.5721 -3.57616 43.9753 -3.46332
126 1 -1.85532 -1.82843 -0.233995 -3.49493
127 1 -1.74078 -3.65568 1.43142 -3.51307
128 1 -3.56676 -1.83631 1.5457 -3.52329
129 1 -0.00533778 -3.5534 -0.344798 -3.50756
130 1 1.77952 -1.73281 -0.406034 -3.53644
131 1 1.76617 -3.80944 1.41195 -3.48803
132 1 -0.0443338 -1.78922 1.43176 -3.50856
133 1 3.65018 -3.51942 -0.374574 -3.52901
134 1 5.34117 -1.71547 43.7685 -3.45387
135 1 5.37139 -3.51926 1.41392 -3.46368
136 1 3.56869 -1.85501 1.52515 -3.49071
137 1 7.01544 -3.58353 43.8482 -3.5099
138 1 8.8267 -1.74219 43.7553 -3.51548
139 1 9.15939 -3.59021 1.56046 -3.47205
140 1 7.2 -1.82012 1.47184 -3.54535
141 1 10.6699 -3.5704 -0.467845 -3.51227
142 1 12.4898 -1.79841 43.8491 -3.48344
143 1 12.5911 -3.5315 1.37639 -3.4914
144 1 10.7822 -1.72864 1.31416 -3.43011
145 1 14.3313 -3.58063 43.6761 -3.4158
146 1 16.0763 -1.90853 43.8697 -3.10173
147 1 16.1092 -3.70711 1.42007 -3.02399
148 1 14.3278 -1.72342 1.39835 -3.44636
149 1 -17.5969 0.0544885 43.5225 -2.43979
150 1 -16.0026 1.7739 43.7439 -3.12051
151 1 -16.1739 0.00602853 1.25906 -3.22135
152 1 -14.3659 -0.00075012 -0.506779 -3.48198
153 1 -12.564 1.72174 43.8381 -3.49443
154 1 -12.5929 -0.088913 1.56536 -3.52018
155 1 -14.2599 1.79341 1.45867 -3.50218
156 1 -10.6794 0.0538384 43.8534 -3.4952
157 1 -8.97703 1.89068 -0.342235 -3.52278
158 1 -8.80918 0.0658599 1.28879 -3.49437
159 1 -10.7991 1.92606 1.53226 -3.50629
160 1 -7.04534 -0.047212 -0.590952 -3.499
161 1 -5.33483 1.78196 -0.361675 -3.49298
162 1 -5.41216 0.128684 1.49421 -3.49587
163 1 -7.13476 1.95606 1.32936 -3.50366
164 1 -3.55893 0.0150707 43.9091 -3.53747
165 1 -1.7482 1.84002 -0.264566 -3.514
166 1 -1.77562 -0.0251821 1.56844 -3.50728
167 1 -3.49384 1.60404 1.62495 -3.44743
168 1 -0.0604784 0.0232038 -0.425537 -3.47592
169 1 1.83902 1.68103 -0.373705 -3.50698
170 1 1.82668 -0.0137514 1.49656 -3.51584
171 1 0.00894392 1.86079 1.4676 -3.50005
172 1 3.62032 -0.113097 -0.383414 -3.47694
173 1 5.4453 1.78243 43.7151 -3.5024
174 1 5.2891 0.0697735 1.36803 -3.51245
175 1 3.5666 1.82339 1.30938 -3.49459
176 1 7.21547 0.0292638 43.7631 -3.46881
177 1 9.02433 1.63154 -0.607125 -3.51977
178 1 9.03417 -0.111111 1.40337 -3.43469
179 1 7.32983 1.5933 1.37271 -3.49366
180 1 10.7685 -0.155888 43.7708 -3.46876
181 1 12.4747 1.69865 43.8236 -3.48922
182 1 12.4952 0.04264 1.34904 -3.53702
183 1 10.628 1.75354 1.40976 -3.50471
184 1 14.411 -0.125887 43.6465 -3.47867
185 1 16.1168 1.81719 43.6029 -3.13813
186 1 15.8277 0.0397595 1.32297 -3.14891
187 1 14.3517 1.94619 1.25744 -3.4616
188 1 17.5656 -0.0289793 43.8565 -2.40413
189 1 -16.1697 5.40815 43.854 -2.96727
190 1 -16.2006 3.66006 1.2301 -3.01155
191 1 -14.3301 3.53928 43.9245 -3.45464
192 1 -12.6114 5.48797 -0.279995 -3.52318
193 1 -12.5213 3.63136 1.4947 -3.48976
194 1 -14.4061 5.36689 1.44319 -3.43316
195 1 -10.8768 3.57367 -0.462363 -3.54101
196 1 -8.86282 5.34815 -0.379255 -3.4909
197 1 -8.89712 3.79348 1.46049 -3.47183
198 1 -10.7734 5.50482 1.45635 -3.52575
199 1 -7.05505 3.67301 -0.435394 -3.50578
200 1 -5.27432 5.51527 -0.327866 -3.49907
201 1 -5.26265 3.5589 1.46218 -3.4925
202 1 -7.04387 5.22833 1.51626 -3.47242
203 1 -3.53086 3.6289 -0.297153 -3.5163
204 1 -1.7336 5.45427 -0.443487 -3.50007
205 1 -1.75436 3.5175 1.5762 -3.50015
206 1 -3.50392 5.42163 1.3632 -3.50688
207 1 -0.0327177 3.68577 -0.394946 -3.49273
208 1 1.65234 5.39868 -0.483646 -3.47979
209 1 1.72278 3.62425 1.33283 -3.50769
210 1 -0.14375 5.46329 1.45061 -3.52014
211 1 3.47376 3.62907 -0.420717 -3.49005
212 1 5.40128 5.19201 -0.449139 -3.43603
213 1 5.53646 3.60775 1.3294 -3.45532
214 1 3.68616 5.45099 1.5362 -3.518
215 1 7.19343 3.39548 -0.608505 -3.49227
216 1 8.89029 5.29888 43.6262 -3.52415
217 1 9.02059 3.52401 1.20292 -3.49475
218 1 7.01668 5.41208 1.32378 -3.41886
219 1 10.7363 3.54296 -0.587944 -3.52725
220 1 12.5173 5.31689 43.765 -3.51173
221 1 12.4781 3.43667 1.28242 -3.46371
222 1 10.679 5.34864 1.27377 -3.51992
223 1 14.2416 3.58288 -0.663067 -3.43401
224 1 16.0711 5.33709 43.8211 -2.9748
225 1 16.3185 3.47309 1.24177 -2.96435
226 1 14.2567 5.23501 1.24282 -3.44813
227 1 -16.0928 7.19874 1.59363 -2.7202
228 1 -14.5242 7.44412 -0.388462 -3.29495
229 1 -12.5574 8.92909 -0.43179 -3.46643
230 1 -12.57 7.25678 1.45693 -3.47314
231 1 -14.2888 9.10115 1.53757 -3.12848
232 1 -10.6812 7.10309 -0.450906 -3.43225
233 1 -8.90532 8.92766 -0.362352 -3.53307
234 1 -8.76256 7.12115 1.51249 -3.52389
235 1 -10.7205 8.8953 1.5145 -3.53251
236 1 -7.08198 7.0925 -0.368874 -3.50304
237 1 -5.45325 9.03031 -0.497101 -3.47437
238 1 -5.36293 7.24229 1.50265 -3.49785
239 1 -7.19707 9.1152 1.38529 -3.48074
240 1 -3.46158 7.2732 -0.348869 -3.49802
241 1 -1.73261 9.09032 43.8701 -3.48453
242 1 -1.79059 7.28531 1.3573 -3.46414
243 1 -3.74676 9.11247 1.40015 -3.52453
244 1 0.0703497 7.33794 -0.320994 -3.54258
245 1 1.78522 9.1947 -0.367266 -3.47595
246 1 1.8804 7.14693 1.47734 -3.49361
247 1 0.024766 9.10612 1.61357 -3.48597
248 1 3.54443 7.35655 -0.41783 -3.51449
249 1 5.35839 9.15748 -0.438903 -3.49247
250 1 5.47663 7.34028 1.27946 -3.47824
251 1 3.43855 9.06933 1.51193 -3.52164
252 1 7.00387 7.11313 -0.572433 -3.49952
253 1 8.89244 8.89706 43.6009 -3.48648
254 1 8.75067 7.2623 1.23921 -3.48943
255 1 7.21221 9.01585 1.26282 -3.44389
256 1 10.6576 7.23826 43.8336 -3.48899
257 1 12.4901 8.95006 43.5868 -3.44785
258 1 12.4886 7.22578 1.25057 -3.49995
259 1 10.7782 8.94121 1.30412 -3.50257
260 1 14.4816 7.17511 44.0043 -3.30507
261 1 15.9922 6.96363 1.64212 -2.71141
262 1 14.3347 9.04354 1.49183 -3.09986
263 1 -14.2217 10.7435 43.975 -2.76261
264 1 -12.2641 12.5565 -0.52685 -2.87711
265 1 -12.3719 10.9986 1.50101 -3.31534
266 1 -10.6923 10.8248 -0.30207 -3.4906
267 1 -8.90916 12.667 43.8761 -3.40841
268 1 -8.9816 10.7561 1.58783 -3.50621
269 1 -10.638 12.666 1.48886 -3.30014
270 1 -7.22301 10.9023 -0.309247 -3.49745
271 1 -5.49226 12.6444 -0.17048 -3.5097
272 1 -5.51939 10.8637 1.59932 -3.50569
273 1 -7.27613 12.6852 1.55371 -3.52879
274 1 -3.62597 11.0444 -0.258636 -3.50424
275 1 -1.85571 12.8063 -0.265768 -3.48745
276 1 -1.77654 10.9833 1.3262 -3.5098
277 1 -3.69151 12.825 1.54874 -3.48965
278 1 0.17017 10.864 43.9528 -3.42154
279 1 1.78839 12.7229 44.017 -3.38594
280 1 1.75559 11.0105 1.42358 -3.42889
281 1 0.05965 12.9594 1.47935 -3.50396
282 1 3.53001 11.0506 -0.287976 -3.47764
283 1 5.30205 12.5876 43.8148 -3.4999
284 1 5.39645 10.7798 1.3841 -3.50379
285 1 3.49035 12.7105 1.44976 -3.44947
286 1 7.13755 10.931 43.8174 -3.49783
287 1 8.98971 12.6741 43.8519 -3.4143
288 1 8.97339 10.8024 1.34831 -3.52701
289 1 7.07701 12.6136 1.33144 -3.52294
290 1 10.7165 10.7004 43.6625 -3.51671
291 1 12.5037 12.3371 43.7019 -2.90155
292 1 12.5849 10.7637 1.28597 -3.31888
293 1 10.7086 12.4997 1.31039 -3.30619
294 1 14.2691 10.5146 43.7287 -2.73612
295 1 -10.5227 14.3316 43.6939 -2.77939
296 1 -9.08959 14.4021 1.5106 -3.11001
297 1 -7.32557 14.4792 -0.226147 -3.35256
298 1 -5.49844 16.1525 -0.289995 -3.0491
299 1 -5.65985 14.5235 1.49832 -3.40017
300 1 -7.37737 16.2601 1.43691 -2.73163
301 1 -3.6779 14.3821 -0.243109 -3.46774
302 1 -2.03171 16.4627 -0.209912 -3.10934
303 1 -1.79909 14.6166 1.53429 -3.47952
304 1 -3.73607 16.296 1.57132 -3.03345
305 1 -0.0526612 14.6861 -0.325011 -3.4908
306 1 2.00846 16.6604 44.0123 -3.04962
307 1 1.90902 14.6707 1.50817 -3.46862
308 1 0.106796 16.2979 1.5479 -3.17667
309 1 3.4742 14.3406 -0.495586 -3.38134
310 1 5.27023 16.0674 43.936 -3.03367
311 1 5.28199 14.3867 1.60873 -3.45406
312 1 3.67787 16.246 1.54066 -3.0053
313 1 7.13607 14.4117 43.7325 -3.35515
314 1 8.95213 14.3208 1.43772 -3.14004
315 1 7.10713 16.0934 1.31672 -2.74704
316 1 10.7149 14.2254 43.9193 -2.70619
317 1 -0.152898 17.9052 44.0146 -2.41856
318 1 -5.26421 -16.1668 3.25711 -3.01317
319 1 -6.96802 -15.8068 5.08545 -2.76914
320 1 -1.8291 -16.1852 3.29963 -3.13485
321 1 -3.47319 -16.388 5.13857 -2.98413
322 1 0.250499 -17.7203 3.14535 -2.38894
323 1 1.9204 -16.0574 3.09257 -3.12781
324 1 -0.0187431 -16.1805 5.00324 -3.21133
325 1 5.26779 -16.0928 3.4699 -3.0131
326 1 3.42768 -16.0454 5.14966 -3.04272
327 1 7.10605 -16.0964 5.11375 -2.71477
328 1 -12.6474 -12.5121 3.2576 -2.85702
329 1 -10.686 -14.1897 3.26965 -2.73815
330 1 -9.02978 -12.509 3.29934 -3.4443
331 1 -8.91733 -14.184 5.11669 -3.12463
332 1 -10.8967 -12.6225 5.18926 -3.30837
333 1 -7.11372 -14.2706 3.03821 -3.36848
334 1 -5.2206 -12.6106 3.25334 -3.47267
335 1 -5.18265 -14.2484 5.0699 -3.37173
336 1 -7.11538 -12.5274 5.04622 -3.53115
337 1 -3.56637 -14.4802 3.37027 -3.41034
338 1 -1.85791 -12.5417 3.29311 -3.50505
339 1 -1.74368 -14.4081 5.0754 -3.48769
340 1 -3.56776 -12.4179 5.13824 -3.45753
341 1 0.00910199 -14.4921 3.29454 -3.48804
342 1 1.88382 -12.6867 3.26387 -3.48063
343 1 1.78645 -14.3843 5.31088 -3.43517
344 1 -0.0395811 -12.6644 5.09052 -3.51315
345 1 3.60783 -14.3238 3.26123 -3.45086
346 1 5.47878 -12.4921 3.36653 -3.50925
347 1 5.37524 -14.256 5.18974 -3.45645
348 1 3.57751 -12.593 5.19381 -3.51226
349 1 7.12176 -14.4904 3.37734 -3.31342
350 1 9.07284 -12.6371 3.24177 -3.42557
351 1 8.99159 -14.2003 5.06493 -3.12392
352 1 7.17845 -12.3995 5.14884 -3.49041
353 1 10.6444 -14.4142 3.40343 -2.73633
354 1 12.5461 -12.7969 3.44418 -2.86381
355 1 10.6887 -12.5115 5.13319 -3.27142
356 1 -14.2942 -10.5627 3.24778 -2.77442
357 1 -12.4808 -8.96281 3.22457 -3.42576
358 1 -12.5689 -10.8487 5.11436 -3.30294
359 1 -14.3259 -8.72484 5.04676 -3.11102
360 1 -10.842 -10.7543 3.07437 -3.47497
361 1 -8.99459 -9.00434 3.29358 -3.54658
362 1 -8.96848 -10.8124 5.13168 -3.50371
363 1 -10.9205 -9.16018 5.06306 -3.46917
364 1 -7.20509 -10.8284 3.20108 -3.51091
365 1 -5.32224 -8.83251 3.23009 -3.49963
366 1 -5.30317 -10.5699 5.06205 -3.46892
367 1 -7.16996 -8.91031 5.00949 -3.52326
368 1 -3.3785 -10.6833 3.33655 -3.50393
369 1 -1.59387 -8.99876 3.35537 -3.47748
370 1 -1.83031 -10.7837 5.24859 -3.49972
371 1 -3.73617 -8.81101 5.08325 -3.40817
372 1 -0.0693536 -10.8641 3.24442 -3.48185
373 1 1.71762 -8.96976 3.27726 -3.52318
374 1 1.666 -10.8893 5.00015 -3.50981
375 1 0.00995827 -9.022 5.18979 -3.48956
376 1 3.60373 -10.8662 3.30753 -3.52403
377 1 5.33861 -8.96831 3.19631 -3.50864
378 1 5.57187 -10.5912 5.01601 -3.43693
379 1 3.55921 -9.04542 5.05417 -3.51091
380 1 7.14963 -10.7659 3.18375 -3.46959
381 1 9.02056 -9.11648 3.12955 -3.48426
382 1 9.09216 -10.8008 5.07728 -3.51203
383 1 7.24449 -8.91881 5.15123 -3.4881
384 1 10.9233 -10.9043 3.29334 -3.49325
385 1 12.5996 -9.1352 3.29707 -3.44888
386 1 12.522 -10.9124 5.17261 -3.31117
387 1 10.7729 -8.97062 5.11676 -3.54863
388 1 14.2578 -10.9145 3.29197 -2.74497
389 1 14.3403 -9.11482 5.18361 -3.14118
390 1 -16.1081 -5.27981 3.25612 -3.0123
391 1 -16.2476 -7.11498 5.02243 -2.72299
392 1 -14.3867 -7.22466 3.27768 -3.36593
393 1 -12.5764 -5.24054 3.17601 -3.50588
394 1 -12.5849 -7.06582 5.00525 -3.48823
395 1 -14.3947 -5.39857 5.0352 -3.46107
396 1 -10.8384 -7.16163 3.11166 -3.50829
397 1 -9.07013 -5.43683 3.14068 -3.4794
398 1 -8.92221 -7.16926 5.20382 -3.44261
399 1 -10.697 -5.47273 5.11593 -3.51337
400 1 -7.27761 -7.12728 3.23811 -3.48921
401 1 -5.35319 -5.44091 3.20684 -3.54593
402 1 -5.38278 -7.07933 5.04763 -3.48877
403 1 -7.17965 -5.44412 5.0181 -3.50366
404 1 -3.45146 -7.20734 3.19925 -3.48908
405 1 -1.79798 -5.45819 3.33177 -3.50907
406 1 -1.94165 -7.23412 5.1309 -3.488
407 1 -3.64808 -5.34753 5.12984 -3.49744
408 1 0.0464408 -7.1949 3.44311 -3.48675
409 1 1.82159 -5.52795 3.29392 -3.4973
410 1 1.68485 -7.21095 5.26471 -3.47318
411 1 -0.0815734 -5.44278 5.26291 -3.51905
412 1 3.45039 -7.28201 3.30946 -3.46893
413 1 5.34097 -5.51826 3.38836 -3.51819
414 1 5.40762 -7.25978 5.24534 -3.52122
415 1 3.64929 -5.27952 5.30552 -3.50072
416 1 7.3257 -7.218 3.27183 -3.51702
417 1 9.04933 -5.41286 3.36139 -3.4984
418 1 8.99697 -7.13526 5.12982 -3.48195
419 1 7.19397 -5.41856 5.20316 -3.53366
420 1 10.8882 -7.25418 3.26437 -3.53074
421 1 12.6309 -5.32722 3.23971 -3.4659
422 1 12.7011 -7.17259 5.22092 -3.52299
423 1 10.8101 -5.41169 5.20025 -3.50747
424 1 14.2122 -7.2238 3.31433 -3.32716
425 1 16.1059 -5.28606 3.29695 -2.96897
426 1 15.9101 -7.16535 4.96784 -2.72587
427 1 14.4601 -5.09218 5.06992 -3.3512
428 1 -16.2992 -1.8992 3.30571 -3.12081
429 1 -16.3773 -3.71722 5.08519 -2.96979
430 1 -14.3406 -3.62624 3.3699 -3.449
431 1 -12.4505 -1.88324 3.22931 -3.49649
432 1 -12.469 -3.66621 5.08141 -3.51913
433 1 -14.4546 -1.73232 5.03689 -3.46676
434 1 -10.6796 -3.59846 3.23522 -3.49027
435 1 -8.94599 -1.7796 3.12159 -3.50093
436 1 -8.98076 -3.57733 5.03389 -3.525
437 1 -10.6996 -1.80799 5.04218 -3.50465
438 1 -7.16936 -3.52804 3.27161 -3.53648
439 1 -5.34889 -1.85547 3.43573 -3.47399
440 1 -5.4133 -3.70708 5.18076 -3.48531
441 1 -7.10976 -1.73299 5.13998 -3.52792
442 1 -3.51525 -3.5893 3.26918 -3.50779
443 1 -1.73601 -1.86853 3.3435 -3.50358
444 1 -1.92082 -3.59944 5.01416 -3.44594
445 1 -3.7411 -1.86572 5.23439 -3.46834
446 1 -0.0759172 -3.70345 3.33277 -3.51873
447 1 1.76975 -1.91238 3.23762 -3.53444
448 1 1.81508 -3.58722 5.18377 -3.5175
449 1 0.0100813 -1.93902 5.10898 -3.47359
450 1 3.65564 -3.65321 3.23198 -3.48822
451 1 5.3246 -1.88882 3.23076 -3.46995
452 1 5.44164 -3.55891 5.21035 -3.50196
453 1 3.74144 -1.81366 5.07952 -3.50841
454 1 7.23513 -3.71171 3.29345 -3.50805
455 1 8.92395 -1.88379 3.38438 -3.44774
456 1 9.11922 -3.6161 5.25625 -3.52365
457 1 7.38681 -1.89812 5.11891 -3.42105
458 1 10.853 -3.57788 3.25026 -3.50734
459 1 12.5997 -1.67957 3.28048 -3.54119
460 1 12.5758 -3.64078 5.07516 -3.48402
461 1 10.8591 -1.76966 5.16969 -3.52615
462 1 14.3412 -3.54829 3.23854 -3.42175
463 1 16.0691 -1.85857 3.24722 -3.14714
464 1 16.138 -3.27326 5.26913 -2.99618
465 1 14.2532 -1.70683 5.13083 -3.47597
466 1 -17.7379 0.149837 3.10722 -2.5165
467 1 -16.052 1.92158 3.1144 -3.25169
468 1 -16.2122 -0.0443022 4.98396 -3.22046
469 1 -14.4325 -0.073318 3.21907 -3.50391
470 1 -12.5461 1.85917 3.43724 -3.48255
471 1 -12.5453 -0.074495 4.90765 -3.49954
472 1 -14.3963 1.75986 5.10491 -3.53818
473 1 -10.6566 0.0511335 3.1811 -3.52995
474 1 -8.81155 1.79644 3.33994 -3.51121
475 1 -8.97001 0.0754304 5.28123 -3.49136
476 1 -10.8085 1.8354 5.11261 -3.51971
477 1 -7.17241 -0.0538309 3.27792 -3.50662
478 1 -5.44081 1.73675 3.30974 -3.53171
479 1 -5.35484 0.0242304 5.2327 -3.47924
480 1 -7.29407 1.80669 5.20018 -3.48146
481 1 -3.60914 -0.134536 3.38036 -3.51802
482 1 -1.75139 1.74897 3.35088 -3.48739
483 1 -1.70068 0.00315597 5.02578 -3.51526
484 1 -3.68127 1.78124 5.2549 -3.48911
485 1 0.167064 0.111344 3.31872 -3.53037
486 1 1.9327 1.90792 3.34033 -3.44268
487 1 1.8472 -0.0474168 5.12092 -3.5461
488 1 0.0652706 1.92941 5.21975 -3.48736
489 1 3.51393 0.0568975 3.29271 -3.5169
490 1 5.41506 1.69457 3.19096 -3.49783
491 1 5.44621 -0.000120107 5.09107 -3.52443
492 1 3.68605 1.77286 5.15577 -3.52442
493 1 7.21325 0.043916 3.24018 -3.49875
494 1 8.94521 1.88272 3.42395 -3.47196
495 1 8.96213 -0.163637 5.17566 -3.46601
496 1 7.31492 1.66247 5.22259 -3.48075
497 1 10.7272 -0.0272921 3.135 -3.50724
498 1 12.53 1.81578 3.27703 -3.50006
499 1 12.5237 0.142878 5.05894 -3.48332
500 1 10.7249 1.86358 5.15237 -3.52573
501 1 14.384 0.0700406 3.16152 -3.48153
502 1 15.9147 2.00746 3.23634 -3.14691
503 1 15.9578 0.107977 5.10689 -3.19164
504 1 14.2523 1.80151 5.10039 -3.44593
505 1 17.5323 0.191337 3.10894 -2.41024
506 1 -16.075 5.4046 3.13308 -2.98435
507 1 -16.0837 3.70718 5.00976 -3.15587
508 1 -14.3432 3.65571 3.20311 -3.45116
509 1 -12.4995 5.45411 3.32073 -3.51864
510 1 -12.6195 3.64388 5.24397 -3.50531
511 1 -14.3681 5.38317 4.97235 -3.42144
512 1 -10.7726 3.61877 3.28309 -3.49996
513 1 -8.97482 5.49435 3.27494 -3.50744
514 1 -9.01398 3.68082 5.06324 -3.53015
515 1 -10.765 5.49774 5.24069 -3.52813
516 1 -7.06249 3.62129 3.37939 -3.49226
517 1 -5.21375 5.3069 3.28976 -3.53603
518 1 -5.33226 3.52438 5.19065 -3.5051
519 1 -7.10762 5.31161 5.12949 -3.51538
520 1 -3.55365 3.49012 3.17406 -3.46804
521 1 -1.7938 5.47713 3.28618 -3.49003
522 1 -1.75696 3.68638 5.04462 -3.55293
523 1 -3.51707 5.46724 5.28203 -3.47059
524 1 0.195881 3.44034 3.32283 -3.43851
525 1 1.845 5.32817 3.2741 -3.50621
526 1 1.89018 3.54733 5.23087 -3.48639
527 1 0.128789 5.34472 5.0389 -3.51586
528 1 3.75011 3.49406 3.13622 -3.50284
529 1 5.5534 5.31518 3.28058 -3.47842
530 1 5.53647 3.52466 5.11638 -3.53858
531 1 3.70839 5.32827 5.02021 -3.54288
532 1 7.26888 3.58291 3.20489 -3.45756
533 1 8.78332 5.3723 3.12193 -3.49001
534 1 8.95321 3.65166 5.21065 -3.50952
535 1 7.12516 5.41355 5.23124 -3.49011
536 1 10.7244 3.68586 3.2083 -3.54232
537 1 12.4776 5.48422 3.18413 -3.50689
538 1 12.4681 3.62631 5.3583 -3.45398
539 1 10.6675 5.35175 5.16675 -3.51283
540 1 14.1135 3.56754 3.1206 -3.40108
541 1 16.0609 5.24023 3.30304 -2.98553
542 1 15.9128 3.69012 5.27808 -3.01903
543 1 14.2956 5.46373 5.09317 -3.42087
544 1 -15.9663 7.20282 5.12551 -2.75149
545 1 -14.2506 7.30929 3.20161 -3.38095
546 1 -12.4907 9.26539 3.2409 -3.44107
547 1 -12.601 7.1412 5.15548 -3.47529
548 1 -14.3292 9.02524 5.1224 -3.11024
549 1 -10.9241 7.30818 3.35469 -3.47525
550 1 -8.90026 8.95996 3.37418 -3.49828
551 1 -8.90299 7.13744 5.10432 -3.5075
552 1 -10.7048 8.96097 5.17878 -3.54242
553 1 -6.96904 7.21488 3.2275 -3.49453
554 1 -5.23341 8.97792 3.36175 -3.47249
555 1 -5.36526 7.11613 5.21333 -3.48418
556 1 -7.21205 9.0404 5.18477 -3.53438
557 1 -3.48325 7.18377 3.176 -3.47644
558 1 -1.92311 9.027 3.1293 -3.50194
559 1 -1.64452 7.07981 5.1479 -3.48426
560 1 -3.5556 8.95898 5.06819 -3.51983
561 1 0.162844 7.15316 3.33797 -3.48119
562 1 1.69078 9.05102 3.26499 -3.47194
563 1 1.85892 7.2442 5.08639 -3.51038
564 1 -0.0922081 8.98601 5.09086 -3.50841
565 1 3.51678 7.19137 3.31965 -3.48425
566 1 5.33607 9.14448 3.24032 -3.5274
567 1 5.34099 7.28209 5.12631 -3.52134
568 1 3.60759 9.20249 5.12555 -3.50695
569 1 7.16435 7.17534 3.32362 -3.47904
570 1 8.85321 8.88507 3.1969 -3.50234
571 1 8.87615 7.19725 5.11499 -3.50645
572 1 7.15077 9.02098 5.10604 -3.52225
573 1 10.6247 7.12474 3.0916 -3.52518
574 1 12.3609 8.94417 3.21476 -3.45233
575 1 12.5038 7.19435 5.09118 -3.50951
576 1 10.6695 8.87869 5.09364 -3.49378
577 1 14.2795 7.2842 3.20918 -3.32211
578 1 15.9851 7.13002 5.07917 -2.75546
579 1 14.3112 9.00931 5.04082 -3.12424
580 1 -14.2257 11.0462 3.15348 -2.68087
581 1 -12.4518 12.5657 3.37988 -2.86446
582 1 -12.6705 10.7763 5.1185 -3.24159
583 1 -10.6178 10.8236 3.44385 -3.53383
584 1 -8.95522 12.7098 3.50762 -3.44507
585 1 -8.96289 10.8569 5.3932 -3.46575
586 1 -10.8631 12.6708 5.22269 -3.35266
587 1 -7.28459 10.7565 3.37075 -3.51852
588 1 -5.4434 12.6963 3.37628 -3.53227
589 1 -5.33547 10.9096 5.16729 -3.49745
590 1 -7.25964 12.6955 5.23528 -3.48942
591 1 -3.6822 10.8422 3.35948 -3.49027
592 1 -1.86552 12.6599 3.32602 -3.51851
593 1 -1.87967 10.9133 5.10478 -3.51532
594 1 -3.6777 12.7489 5.03805 -3.48525
595 1 -0.15639 10.9063 3.29033 -3.5047
596 1 1.68108 12.6925 3.36986 -3.49949
597 1 1.86829 10.9628 5.01004 -3.49009
598 1 0.0249589 12.7304 5.19724 -3.503
599 1 3.59966 10.9956 3.15274 -3.48255
600 1 5.42236 12.6035 3.3772 -3.47712
601 1 5.49088 10.8506 5.09413 -3.45088
602 1 3.6953 12.6001 5.0353 -3.50366
603 1 7.23953 10.7528 3.15996 -3.5235
604 1 9.00258 12.5061 3.24722 -3.48409
605 1 9.01147 10.7065 5.06918 -3.55767
606 1 7.14695 12.5168 5.06489 -3.44109
607 1 10.7841 10.7067 3.12278 -3.50241
608 1 12.4405 12.5262 3.14817 -2.85393
609 1 12.3822 10.6626 5.2159 -3.31571
610 1 10.891 12.4776 5.11394 -3.28462
611 1 14.0361 10.7637 3.26907 -2.76955
612 1 -10.7837 14.2962 3.30984 -2.73377
613 1 -9.05839 14.4022 5.1617 -3.09543
614 1 -7.28532 14.6264 3.28311 -3.32971
615 1 -5.63995 16.4047 3.15024 -2.95663
616 1 -5.62869 14.6935 5.07326 -3.44906
617 1 -7.53905 16.1832 5.16042 -2.65605
618 1 -3.80303 14.5728 3.23902 -3.46051
619 1 -1.94396 16.2984 3.3109 -3.13769
620 1 -1.86518 14.4409 5.12339 -3.49385
621 1 -3.7048 16.3361 5.11577 -3.01833
622 1 0.0136365 14.657 3.26959 -3.49103
623 1 1.98245 16.419 3.3753 -3.14195
624 1 1.94651 14.4176 5.21303 -3.46361
625 1 0.159182 16.2416 5.21871 -3.2312
626 1 3.63279 14.553 3.45029 -3.45532
627 1 5.50381 16.1419 3.43141 -3.00903
628 1 5.62509 14.5085 5.25317 -3.46464
629 1 3.77523 16.2178 5.28174 -3.04262
630 1 7.26474 14.4118 3.21966 -3.35216
631 1 8.80605 14.2987 5.03578 -3.13218
632 1 7.26923 16.3134 5.12762 -2.68014
633 1 10.7138 14.1852 3.2184 -2.75747
634 1 -0.0488135 17.8775 3.26007 -2.37814
635 1 -5.27833 -16.1763 6.74119 -2.90698
636 1 -7.07924 -16.0429 8.89552 -2.69919
637 1 -1.81147 -16.0203 7.13905 -3.10153
638 1 -3.69151 -16.208 8.77879 -3.03797
639 1 -0.351292 -17.7134 6.9262 -2.31665
640 1 1.66949 -16.1453 7.08049 -3.15473
641 1 -0.0244124 -16.2231 8.86998 -3.24031
642 1 5.44373 -16.1677 6.86845 -2.99925
643 1 3.66562 -16.2687 8.65843 -3.01497
644 1 7.07412 -16.084 8.81207 -2.75607
645 1 -12.6151 -12.3536 7.20989 -2.90001
646 1 -10.73 -14.2022 7.03596 -2.74977
647 1 -9.02862 -12.5164 6.88154 -3.39225
648 1 -9.16912 -14.4761 8.82489 -3.0923
649 1 -10.8361 -12.5337 8.86132 -3.3381
650 1 -7.4078 -14.4063 7.04578 -3.30321
651 1 -5.50687 -12.5477 7.12254 -3.45619
652 1 -5.39338 -14.1733 8.91196 -3.42701
653 1 -7.4079 -12.5247 8.76914 -3.5146
654 1 -3.63883 -14.3494 7.06339 -3.47439
655 1 -1.81844 -12.6132 7.15826 -3.44153
656 1 -1.82638 -14.4558 9.04579 -3.46346
657 1 -3.55211 -12.5771 8.92242 -3.49878
658 1 -0.113352 -14.1825 7.09605 -3.47809
659 1 1.79707 -12.5613 6.99794 -3.52612
660 1 1.71473 -14.2832 8.90876 -3.50623
661 1 -0.0381046 -12.5185 8.96747 -3.47775
662 1 3.551 -14.4475 7.01487 -3.45999
663 1 5.3384 -12.5454 6.86037 -3.48859
664 1 5.29866 -14.3623 8.8518 -3.42953
665 1 3.63587 -12.5322 8.80015 -3.52864
666 1 7.29159 -14.4676 6.87421 -3.34469
667 1 8.91893 -12.5514 7.06519 -3.49378
668 1 9.02338 -14.5446 8.62351 -3.07264
669 1 7.08273 -12.639 8.80206 -3.53205
670 1 10.6941 -14.327 6.86912 -2.76754
671 1 12.4533 -12.6898 6.89493 -2.89136
672 1 10.8597 -12.8143 8.83211 -3.29917
673 1 -14.4476 -10.6282 6.93355 -2.6626
674 1 -12.6819 -9.06023 6.88796 -3.46674
675 1 -12.6293 -10.7139 8.94932 -3.33281
676 1 -14.4497 -9.08754 8.72326 -3.09682
677 1 -10.7105 -10.8247 6.90552 -3.45797
678 1 -9.12864 -8.86398 6.806 -3.47901
679 1 -9.04987 -10.7442 8.70636 -3.49389
680 1 -10.9154 -8.94077 8.8174 -3.50433
681 1 -7.24789 -10.7254 6.877 -3.52668
682 1 -5.4915 -8.7741 7.11872 -3.49019
683 1 -5.3493 -10.78 8.9465 -3.45028
684 1 -7.28587 -9.01928 8.71389 -3.49133
685 1 -3.85766 -10.8656 7.02228 -3.45581
686 1 -1.85401 -8.98735 6.90851 -3.50661
687 1 -1.81173 -10.8208 8.85162 -3.48979
688 1 -3.64493 -8.98364 8.81143 -3.51537
689 1 -0.0868505 -10.9134 7.17576 -3.46763
690 1 1.78251 -9.02158 6.98733 -3.51255
691 1 1.83393 -10.8483 8.82266 -3.52982
692 1 -0.0562523 -9.05913 8.79086 -3.51112
693 1 3.59481 -10.6688 6.92974 -3.51796
694 1 5.41338 -8.91269 7.13489 -3.47886
695 1 5.32631 -10.6704 8.75259 -3.46815
696 1 3.54421 -8.88279 8.80734 -3.49199
697 1 7.09141 -10.8307 6.98297 -3.4814
698 1 8.9176 -9.0275 6.98393 -3.52673
699 1 9.05003 -10.8458 8.81593 -3.52477
700 1 7.24919 -8.98838 8.89652 -3.50641
701 1 10.877 -10.8302 7.00062 -3.49423
702 1 12.547 -9.09613 6.90031 -3.42402
703 1 12.6335 -11.0567 8.86946 -3.32038
704 1 10.9397 -9.04537 8.81215 -3.50452
705 1 14.2062 -11.0023 6.90908 -2.74739
706 1 14.2052 -9.09361 8.67485 -3.13775
707 1 -16.1326 -5.29577 6.81911 -3.01157
708 1 -16.0351 -7.00125 8.77755 -2.7359
709 1 -14.3643 -7.13143 6.88869 -3.37716
710 1 -12.6766 -5.39147 6.88727 -3.49387
711 1 -12.6692 -7.32362 8.72573 -3.49199
712 1 -14.4102 -5.25127 8.74215 -3.45156
713 1 -10.8638 -7.1468 6.87871 -3.51371
714 1 -8.93637 -5.28254 6.99048 -3.49718
715 1 -9.11223 -7.13928 8.70825 -3.54526
716 1 -10.9065 -5.26493 8.60467 -3.47034
717 1 -7.28493 -7.08846 7.06567 -3.49078
718 1 -5.49264 -5.34994 6.9782 -3.52893
719 1 -5.5457 -7.08771 8.91429 -3.50908
720 1 -7.1813 -5.2222 8.94741 -3.4686
721 1 -3.63757 -7.07299 6.91071 -3.50037
722 1 -1.85934 -5.20793 6.9238 -3.48753
723 1 -1.84107 -7.34205 8.82096 -3.47953
724 1 -3.57365 -5.43683 8.79366 -3.5475
725 1 -0.0140067 -7.31932 7.0054 -3.47282
726 1 1.7172 -5.41165 6.9746 -3.51209
727 1 1.76427 -7.20419 8.75788 -3.51725
728 1 -0.0348778 -5.44775 8.83591 -3.52358
729 1 3.63567 -7.16381 6.98321 -3.52914
730 1 5.5278 -5.37586 7.14794 -3.52638
731 1 5.45734 -7.1059 8.94884 -3.50454
732 1 3.61101 -5.35062 8.86328 -3.5431
733 1 7.21412 -7.24874 7.14588 -3.49213
734 1 8.94326 -5.45857 7.04262 -3.50234
735 1 9.06546 -7.28171 8.95029 -3.53521
736 1 7.21484 -5.36709 8.98877 -3.5203
737 1 10.8399 -7.19839 6.99366 -3.53376
738 1 12.8235 -5.31834 6.94246 -3.52614
739 1 12.5687 -7.28322 8.80045 -3.47576
740 1 10.8973 -5.38804 8.82844 -3.50076
741 1 14.3637 -7.35581 7.05145 -3.31723
742 1 15.9124 -5.34443 6.9823 -3.03635
743 1 16.1343 -7.21473 9.00694 -2.65676
744 1 14.4232 -5.46748 8.87664 -3.45008
745 1 -16.1848 -1.77696 6.86037 -3.04851