ITEM: TIMESTEP
54000
ITEM: NUMBER OF ATOMS
3804
ITEM: BOX BOUNDS ss ss pp
-1.7870098754569042e+01 1.7804688850582039e+01
-1.7631220795646122e+01 1.7836288478495383e+01
-1.1712600000000002e+00 4.4551260000000006e+01
ITEM: ATOMS id type x y z c_peratom
1 1 -5.29989 -15.8507 44.5865 -3.00799
2 1 -7.02116 -15.8273 1.03436 -2.70689
3 1 -2.03433 -16.1047 -1.38896 -3.10784
4 1 -3.51787 -15.9725 0.74129 -3.0357
5 1 -0.136924 -17.5506 -1.49247 -2.35892
6 1 1.85057 -16.0476 -1.04052 -3.0901
7 1 -0.321379 -16.1367 0.637396 -3.11122
8 1 5.23596 -15.9654 44.5584 -2.98651
9 1 3.6082 -15.9401 0.937776 -3.0185
10 1 6.86988 -15.8532 0.748675 -2.72057
11 1 -12.3056 -12.294 -0.736548 -2.79679
12 1 -10.3814 -14.1701 44.586 -2.70408
13 1 -8.96497 -12.2405 -1.13911 -3.40318
14 1 -8.83703 -14.2825 0.702008 -3.05762
15 1 -10.4907 -12.3221 0.89781 -3.30788
16 1 -7.20437 -14.2566 44.6565 -3.35748
17 1 -5.49359 -12.5194 44.6395 -3.51723
18 1 -5.29899 -14.3168 0.734902 -3.38261
19 1 -7.11155 -12.4559 0.787615 -3.52119
20 1 -3.58885 -14.1194 -1.16455 -3.45889
21 1 -1.86645 -12.4686 -0.977147 -3.43367
22 1 -1.85606 -14.1959 0.752579 -3.4285
23 1 -3.6383 -12.5009 0.777099 -3.50505
24 1 -0.158237 -14.2299 -1.23167 -3.52838
25 1 1.72266 -12.4793 -1.02809 -3.47991
26 1 1.48567 -14.4614 0.812093 -3.45128
27 1 -0.133711 -12.4759 0.715285 -3.46151
28 1 3.60928 -14.02 -1.06563 -3.44097
29 1 5.40996 -12.3497 -1.01298 -3.48431
30 1 5.29429 -14.1371 0.838132 -3.39389
31 1 3.4815 -12.4271 0.767206 -3.46106
32 1 7.27142 -14.2782 44.6424 -3.31238
33 1 8.99824 -12.2414 44.621 -3.47758
34 1 8.9197 -14.1111 0.908432 -3.12076
35 1 7.11503 -12.3264 0.641453 -3.4905
36 1 10.7297 -13.8843 -0.965166 -2.6951
37 1 12.6296 -12.3522 -1.07292 -2.8393
38 1 10.8209 -12.3919 0.783196 -3.28144
39 1 -14.1338 -10.5737 -1.20426 -2.70332
40 1 -12.4371 -8.69005 -1.2378 -3.48764
41 1 -12.4854 -10.4935 0.741966 -3.28875
42 1 -14.3372 -8.73034 0.597869 -3.11504
43 1 -10.6363 -10.6823 -1.21354 -3.38212
44 1 -9.07287 -8.87966 -1.29702 -3.51623
45 1 -8.87611 -10.5817 0.674559 -3.49436
46 1 -10.6528 -8.75776 0.701478 -3.52459
47 1 -7.10588 -10.6075 -1.1617 -3.50045
48 1 -5.34173 -9.02768 44.5713 -3.40864
49 1 -5.40421 -10.6183 0.767182 -3.48656
50 1 -7.10665 -8.73611 0.530618 -3.49226
51 1 -3.63381 -10.7416 44.6242 -3.51914
52 1 -1.79394 -8.95567 -1.09461 -3.52744
53 1 -1.74934 -10.6757 0.908969 -3.48937
54 1 -3.71505 -8.85325 0.649572 -3.46217
55 1 -0.0564375 -10.7578 -1.12813 -3.50915
56 1 1.77765 -8.7588 44.6441 -3.4909
57 1 1.57537 -10.7286 0.860466 -3.49047
58 1 -0.130713 -8.92079 0.782214 -3.47313
59 1 3.49988 -10.7015 44.715 -3.54804
60 1 5.27813 -8.80265 -1.05483 -3.51158
61 1 5.28254 -10.663 0.903298 -3.50816
62 1 3.53361 -8.89224 0.915083 -3.50354
63 1 7.07972 -10.4486 44.6625 -3.4852
64 1 9.10066 -8.82364 44.5886 -3.47314
65 1 8.94522 -10.5127 0.739395 -3.52228
66 1 7.01153 -8.92568 0.91038 -3.47475
67 1 10.9441 -10.5461 44.6469 -3.479
68 1 12.6714 -8.93521 44.5958 -3.41233
69 1 12.5986 -10.6761 0.924483 -3.30635
70 1 10.9109 -8.89977 0.7988 -3.52428
71 1 14.367 -10.6132 44.6369 -2.65763
72 1 14.2996 -8.93193 0.99244 -3.09127
73 1 -15.9792 -5.18453 -1.35278 -3.01462
74 1 -15.9826 -6.86078 0.592486 -2.75686
75 1 -14.4296 -7.16591 -1.40365 -3.30971
76 1 -12.4151 -5.37911 -1.29481 -3.46424
77 1 -12.503 -7.06098 0.561199 -3.4906
78 1 -14.2645 -5.11144 0.631855 -3.448
79 1 -10.6552 -6.9064 -1.35537 -3.45148
80 1 -8.89197 -5.32675 44.5052 -3.49453
81 1 -8.93023 -6.93009 0.770866 -3.47385
82 1 -10.7191 -5.31863 0.736269 -3.47859
83 1 -7.15669 -7.1524 44.4858 -3.50216
84 1 -5.43597 -5.40441 44.507 -3.46517
85 1 -5.29054 -7.04654 0.605548 -3.4597
86 1 -7.00968 -5.27971 0.64037 -3.4895
87 1 -3.53247 -6.96532 -1.05463 -3.50084
88 1 -1.71807 -5.27289 -1.15421 -3.4787
89 1 -1.89258 -7.06587 0.75171 -3.46926
90 1 -3.61811 -5.28628 0.798106 -3.46699
91 1 -0.0735701 -7.09618 44.7212 -3.49357
92 1 1.68863 -5.4358 44.5849 -3.51684
93 1 1.82052 -7.17497 0.820981 -3.49257
94 1 0.110592 -5.2861 0.875672 -3.52445
95 1 3.44558 -7.07786 -1.09649 -3.43564
96 1 5.23039 -5.43321 -1.07557 -3.52499
97 1 5.2393 -7.11617 0.977211 -3.49974
98 1 3.4631 -5.3659 0.788437 -3.47697
99 1 7.14894 -7.20219 -0.961998 -3.52338
100 1 8.79135 -5.29005 44.6982 -3.52254
101 1 8.9165 -7.14271 0.784048 -3.51458
102 1 7.06299 -5.42299 0.8634 -3.50603
103 1 10.7307 -7.10219 -0.941855 -3.49594
104 1 12.5512 -5.27374 -1.11439 -3.51253
105 1 12.6238 -7.0211 1.01703 -3.34197
106 1 10.639 -5.37073 0.812155 -3.51141
107 1 14.2905 -7.10729 44.6833 -3.32352
108 1 15.9667 -5.14593 -1.12749 -3.01084
109 1 15.8792 -6.81674 0.810247 -2.77688
110 1 14.0905 -5.25805 0.842796 -3.36753
111 1 -16.1326 -1.71974 -1.25705 -3.06839
112 1 -16.1619 -3.62942 0.710564 -2.95566
113 1 -14.2623 -3.31682 -1.22002 -3.41175
114 1 -12.4609 -1.75947 -1.08993 -3.46226
115 1 -12.3065 -3.45277 0.777551 -3.48679
116 1 -14.2959 -1.77734 0.636476 -3.46073
117 1 -10.7901 -3.58377 44.4435 -3.50983
118 1 -8.98144 -1.69335 44.5004 -3.52319
119 1 -8.93248 -3.58611 0.700191 -3.52846
120 1 -10.502 -1.75979 0.752352 -3.46597
121 1 -7.13607 -3.58822 44.4407 -3.51483
122 1 -5.41833 -1.73889 -1.17007 -3.48171
123 1 -5.43037 -3.48246 0.766981 -3.48856
124 1 -7.2541 -1.70436 0.807094 -3.52706
125 1 -3.70445 -3.60015 -1.10975 -3.54665
126 1 -1.70402 -1.60741 -1.20951 -3.47688
127 1 -1.89932 -3.51508 0.813504 -3.46531
128 1 -3.60597 -1.81082 0.86197 -3.47166
129 1 -0.0671386 -3.47613 -0.94879 -3.46988
130 1 1.74811 -1.69863 -1.248 -3.51914
131 1 1.85869 -3.4994 0.652111 -3.48738
132 1 -0.011591 -1.63797 0.684424 -3.50913
133 1 3.47716 -3.58967 44.5484 -3.51752
134 1 5.18442 -1.80254 44.6404 -3.50753
135 1 5.2377 -3.64069 0.914711 -3.48052
136 1 3.47503 -1.61293 0.703215 -3.49723
137 1 6.91754 -3.59738 44.7576 -3.52524
138 1 8.86603 -1.90393 44.6445 -3.51633
139 1 8.88889 -3.55422 0.778867 -3.51956
140 1 7.07622 -1.79038 0.781021 -3.50907
141 1 10.6779 -3.52381 44.7519 -3.4907
142 1 12.454 -1.69136 -1.14978 -3.52228
143 1 12.3924 -3.46963 0.893304 -3.50749
144 1 10.6552 -1.68896 0.66862 -3.51646
145 1 14.2707 -3.49399 -1.00391 -3.45486
146 1 16.2025 -1.90248 -1.20622 -3.08432
147 1 15.968 -3.56253 0.909126 -3.05838
148 1 14.231 -1.76899 0.764716 -3.46384
149 1 -17.6221 0.199625 -1.2264 -2.35158
150 1 -15.949 1.8975 -1.25768 -3.12715
151 1 -16.1388 0.0848931 0.718926 -3.21228
152 1 -14.4777 -0.0128051 -1.21448 -3.48562
153 1 -12.6948 1.74042 -1.01399 -3.50538
154 1 -12.4517 -0.0889276 0.69074 -3.50584
155 1 -14.236 1.82438 0.808326 -3.46101
156 1 -10.7373 0.044324 -1.26496 -3.48473
157 1 -9.05588 1.71 44.4262 -3.47703
158 1 -8.93099 -0.00157183 0.679269 -3.46132
159 1 -10.7096 1.73559 0.64552 -3.52188
160 1 -7.14006 0.00895214 44.53 -3.50372
161 1 -5.28631 1.88649 44.6049 -3.50915
162 1 -5.27487 -0.0415021 0.724791 -3.52774
163 1 -7.15308 1.72436 0.65072 -3.52922
164 1 -3.65763 -0.0228478 44.5541 -3.49205
165 1 -1.76091 1.84496 44.5652 -3.52663
166 1 -1.83338 0.0173368 0.671914 -3.51177
167 1 -3.55185 1.80388 0.815699 -3.5172
168 1 0.0284518 0.137696 44.5617 -3.4936
169 1 1.80603 1.83014 -1.02581 -3.50045
170 1 1.80192 0.129919 0.779425 -3.48023
171 1 -0.0199586 1.81679 0.684993 -3.45364
172 1 3.59454 0.0934956 44.5818 -3.51372
173 1 5.45816 1.79176 -1.07331 -3.48531
174 1 5.4055 -0.0283098 0.825388 -3.51194
175 1 3.55635 1.78895 0.731248 -3.51971
176 1 7.09803 -0.020706 -1.23516 -3.50627
177 1 8.84327 1.73763 44.5551 -3.50243
178 1 8.86023 0.0603868 0.808698 -3.50067
179 1 7.13988 1.72733 0.781159 -3.49338
180 1 10.6527 0.100188 -1.20759 -3.51192
181 1 12.4847 1.87922 44.2168 -3.44799
182 1 12.5134 0.00307751 0.712547 -3.49514
183 1 10.6974 1.66279 0.74819 -3.47214
184 1 14.3589 0.0179646 -1.13798 -3.50944
185 1 16.0167 1.94626 -1.21026 -3.11039
186 1 15.9724 0.0810361 0.817818 -3.20646
187 1 14.0687 1.89017 0.674183 -3.44444
188 1 17.5117 0.0963987 -1.08503 -2.3683
189 1 -15.9913 5.51097 44.5989 -2.96232
190 1 -16.0126 3.67015 0.482011 -2.99872
191 1 -14.1876 3.64598 44.5583 -3.43526
192 1 -12.4553 5.28455 -1.21373 -3.49368
193 1 -12.3862 3.62636 0.758728 -3.53515
194 1 -14.2057 5.40296 0.861927 -3.42126
195 1 -10.7029 3.54204 -1.11944 -3.51243
196 1 -8.87092 5.39323 44.547 -3.49391
197 1 -8.9922 3.49516 0.750858 -3.51201
198 1 -10.6219 5.31113 0.842244 -3.47688
199 1 -7.109 3.5301 44.5232 -3.51889
200 1 -5.30979 5.34259 -1.17596 -3.51876
201 1 -5.37293 3.53553 0.675451 -3.49038
202 1 -7.02111 5.28366 0.606572 -3.48139
203 1 -3.43815 3.66103 44.702 -3.50167
204 1 -1.69422 5.48297 -1.07082 -3.47319
205 1 -1.68518 3.50629 0.779316 -3.47451
206 1 -3.48739 5.27855 0.770572 -3.52214
207 1 -0.0145397 3.62464 -1.13089 -3.50194
208 1 1.83741 5.22229 -1.18397 -3.529
209 1 1.58923 3.52251 0.769716 -3.47746
210 1 -0.10621 5.28931 0.767379 -3.45679
211 1 3.74523 3.52696 44.6002 -3.48915
212 1 5.32416 5.31777 44.497 -3.46797
213 1 5.38187 3.50968 0.809377 -3.4825
214 1 3.50018 5.22113 0.843066 -3.52591
215 1 7.15913 3.47375 44.7129 -3.48613
216 1 8.94472 5.34005 44.761 -3.42624
217 1 8.89237 3.53627 0.76581 -3.53667
218 1 7.00613 5.23371 0.858399 -3.50763
219 1 10.6234 3.6159 44.5954 -3.51546
220 1 12.4525 5.59585 44.5867 -3.47938
221 1 12.3217 3.38458 0.716136 -3.42913
222 1 10.6836 5.41278 0.593434 -3.45607
223 1 14.1733 3.67457 44.5752 -3.42849
224 1 15.7428 5.46594 44.4431 -3.00446
225 1 15.9113 3.60652 0.6926 -3.03054
226 1 14.0152 5.32797 0.621299 -3.38051
227 1 -15.6679 7.11801 0.792938 -2.71466
228 1 -14.1786 7.20913 44.6186 -3.33541
229 1 -12.3831 8.82214 -1.12387 -3.43483
230 1 -12.2856 7.11607 0.787136 -3.50441
231 1 -13.9607 8.91016 0.696324 -3.12607
232 1 -10.555 7.12768 -1.26428 -3.50914
233 1 -8.61559 8.89056 -1.20591 -3.45193
234 1 -8.80447 7.0479 0.676587 -3.5371
235 1 -10.5008 8.92969 0.648923 -3.53111
236 1 -7.12161 7.14335 44.5236 -3.44566
237 1 -5.41997 8.89298 -1.21641 -3.5001
238 1 -5.37996 7.06198 0.708799 -3.50297
239 1 -7.00378 8.88351 0.796906 -3.48628
240 1 -3.45771 7.18909 -1.08938 -3.497
241 1 -1.79655 8.89142 -1.26253 -3.50395
242 1 -1.76312 7.15106 0.831298 -3.48454
243 1 -3.59414 8.90674 0.732426 -3.53222
244 1 0.116297 7.11743 -1.15959 -3.495
245 1 1.81554 8.78128 -1.27234 -3.46944
246 1 1.85133 7.08127 0.657505 -3.49268
247 1 -0.0332867 8.92649 0.716655 -3.50645
248 1 3.54937 7.03768 -1.18168 -3.47002
249 1 5.12601 8.82291 44.4325 -3.48194
250 1 5.18731 7.08229 0.800562 -3.53838
251 1 3.41804 8.83994 0.71686 -3.48428
252 1 6.91837 7.11791 -1.15603 -3.51173
253 1 8.64309 8.88213 -1.09473 -3.4742
254 1 8.80811 7.07348 0.791161 -3.50059
255 1 7.0333 8.87636 0.807569 -3.5043
256 1 10.5125 7.18557 -1.07437 -3.49737
257 1 12.3202 9.04918 44.7191 -3.37125
258 1 12.4894 7.27205 0.767349 -3.50353
259 1 10.4719 9.0452 0.836213 -3.51396
260 1 13.9879 7.51251 44.5983 -3.23054
261 1 15.6284 7.02322 0.594807 -2.77092
262 1 14.153 9.04547 1.15892 -3.0287
263 1 -14.0191 10.6806 -1.19961 -2.72526
264 1 -12.3178 12.5593 -1.23728 -2.87221
265 1 -12.2254 10.7797 0.645569 -3.33051
266 1 -10.5057 10.7123 -1.27074 -3.49971
267 1 -8.86862 12.6037 44.6708 -3.44549
268 1 -8.7686 10.689 0.656667 -3.50771
269 1 -10.7475 12.7492 0.614247 -3.28192
270 1 -7.01067 10.6221 -1.13196 -3.4465
271 1 -5.36221 12.5012 -1.32009 -3.52821
272 1 -5.2611 10.6809 0.670061 -3.44723
273 1 -6.99677 12.5016 0.686274 -3.49741
274 1 -3.55612 10.6204 -1.3412 -3.50246
275 1 -1.73889 12.3701 -1.36496 -3.52999
276 1 -1.80328 10.7799 0.606968 -3.45789
277 1 -3.55955 12.3043 0.599649 -3.41812
278 1 0.0980954 10.6028 44.4645 -3.52042
279 1 1.7776 12.5211 -1.32844 -3.50639
280 1 1.75234 10.6712 0.864437 -3.45214
281 1 -0.0190942 12.4535 0.6158 -3.52692
282 1 3.46321 10.596 -1.29451 -3.52369
283 1 5.2485 12.6091 44.5223 -3.51669
284 1 5.15668 10.6776 0.661733 -3.52776
285 1 3.42388 12.4131 0.612964 -3.44999
286 1 6.87725 10.6493 -1.14571 -3.53372
287 1 8.72307 12.5276 -1.2637 -3.45041
288 1 8.68358 10.7836 0.719281 -3.51207
289 1 6.94892 12.4753 0.626221 -3.50295
290 1 10.4722 10.648 44.4988 -3.49557
291 1 12.1042 12.4831 -1.39188 -2.89233
292 1 12.2094 10.9056 0.631543 -3.33151
293 1 10.4366 12.7126 0.578544 -3.29013
294 1 14.0164 10.7407 44.3955 -2.67258
295 1 -10.3579 14.5207 -1.15272 -2.69243
296 1 -8.74057 14.3508 0.799112 -3.1263
297 1 -7.20072 14.3237 44.6542 -3.34293
298 1 -5.28922 16.0032 -1.08359 -2.93962
299 1 -5.20576 14.0999 0.704085 -3.44118
300 1 -6.71732 15.9689 0.731946 -2.76246
301 1 -3.55699 14.2478 44.5103 -3.43622
302 1 -1.90607 15.9768 -1.44318 -3.05662
303 1 -1.85181 14.1657 0.54578 -3.48304
304 1 -3.68507 16.0672 0.619199 -2.96382
305 1 -0.000795123 14.299 44.3792 -3.52846
306 1 1.95474 15.9758 -1.15623 -3.05319
307 1 1.93843 14.2229 0.77162 -3.43741
308 1 0.151445 15.9033 0.735224 -3.16903
309 1 3.50714 14.2909 -1.27783 -3.38577
310 1 5.19395 15.9769 44.3813 -2.98979
311 1 5.18802 14.1411 0.714231 -3.47629
312 1 3.64615 16.2516 0.583348 -2.98361
313 1 7.08057 14.4436 -1.27286 -3.35814
314 1 8.75107 14.4043 0.617311 -3.08591
315 1 6.88133 16.0016 0.626367 -2.72069
316 1 10.3064 14.3342 44.3995 -2.72518
317 1 0.161852 17.389 44.6046 -2.40212
318 1 -5.30719 -15.9953 2.8487 -2.98431
319 1 -7.06651 -15.967 4.53816 -2.74029
320 1 -1.91549 -15.954 2.57574 -3.0926
321 1 -3.66393 -16.1065 4.65051 -3.00514
322 1 0.0131708 -17.3902 2.46578 -2.36873
323 1 1.78664 -15.9431 2.86544 -3.03317
324 1 -0.102666 -15.9881 4.50975 -3.24499
325 1 5.29921 -15.7103 2.74665 -2.97475
326 1 3.48516 -16.0723 4.47689 -2.99849
327 1 6.98902 -15.92 4.42842 -2.68779
328 1 -12.414 -12.2328 2.48501 -2.87196
329 1 -10.397 -14.0456 2.61345 -2.76971
330 1 -8.67552 -12.3011 2.63792 -3.3699
331 1 -8.96315 -14.2098 4.70669 -3.1081
332 1 -10.7707 -12.4497 4.56801 -3.2804
333 1 -7.23457 -14.1045 2.72743 -3.33837
334 1 -5.36287 -12.4861 2.7243 -3.52764
335 1 -5.43721 -14.1667 4.57513 -3.43276
336 1 -7.28112 -12.4821 4.749 -3.42821
337 1 -3.58963 -14.268 2.834 -3.4633
338 1 -1.95608 -12.4748 2.59817 -3.40244
339 1 -1.78424 -14.2406 4.57317 -3.45061
340 1 -3.71745 -12.4316 4.57171 -3.50352
341 1 -0.34568 -14.2077 2.66507 -3.42283
342 1 1.71723 -12.5381 2.66549 -3.50025
343 1 1.69754 -14.3621 4.65631 -3.42163
344 1 0.00108004 -12.6196 4.67177 -3.48374
345 1 3.65663 -14.0547 2.70831 -3.41899
346 1 5.48486 -12.3025 2.76684 -3.39061
347 1 5.18431 -14.12 4.61802 -3.48143
348 1 3.388 -12.2707 4.67039 -3.48715
349 1 7.03106 -13.9254 2.60786 -3.28884
350 1 9.04644 -12.3265 2.73298 -3.48553
351 1 8.84925 -14.2864 4.44109 -3.07426
352 1 7.16238 -12.4902 4.54127 -3.47345
353 1 10.7578 -14.0894 2.82995 -2.68504
354 1 12.5817 -12.4253 2.92911 -2.83837
355 1 10.6342 -12.463 4.7798 -3.31882
356 1 -14.2228 -10.4009 2.60327 -2.70143
357 1 -12.5087 -8.8016 2.51547 -3.41417
358 1 -12.4349 -10.4932 4.56829 -3.36555
359 1 -14.3853 -8.84411 4.57628 -3.06037
360 1 -10.6125 -10.558 2.77595 -3.51457
361 1 -8.78107 -8.69375 2.52535 -3.44378
362 1 -8.90272 -10.7128 4.61011 -3.48855
363 1 -10.5917 -8.72162 4.54273 -3.51428
364 1 -7.07835 -10.5011 2.55923 -3.45885
365 1 -5.26825 -8.95552 2.53274 -3.45946
366 1 -5.44338 -10.5852 4.45388 -3.50258
367 1 -7.08457 -8.74883 4.51641 -3.50567
368 1 -3.55506 -10.8187 2.60466 -3.44805
369 1 -1.73599 -8.73025 2.61222 -3.46037
370 1 -1.66196 -10.8439 4.62149 -3.48933
371 1 -3.47981 -8.98768 4.50454 -3.547
372 1 -0.0904442 -10.6798 2.82347 -3.4918
373 1 1.70556 -9.03375 2.63521 -3.47299
374 1 1.58249 -10.5228 4.66482 -3.49079
375 1 -0.163935 -8.8156 4.72949 -3.48742
376 1 3.34776 -10.7802 2.59864 -3.45619
377 1 5.46687 -8.91736 2.86491 -3.48258
378 1 5.32017 -10.776 4.66405 -3.49678
379 1 3.5249 -8.9533 4.61557 -3.53733
380 1 7.18288 -10.5109 2.73306 -3.39168
381 1 8.91359 -9.0129 2.66255 -3.43918
382 1 8.98829 -10.6675 4.697 -3.51886
383 1 7.17713 -8.85457 4.63409 -3.49624
384 1 10.8205 -10.628 2.72963 -3.48138
385 1 12.5605 -8.91106 2.77925 -3.46296
386 1 12.3684 -10.5396 4.62551 -3.30504
387 1 10.6478 -8.8637 4.58617 -3.44366
388 1 14.2715 -10.6488 3.26525 -2.6504
389 1 14.2434 -8.70532 4.68403 -3.10563
390 1 -16.0495 -5.276 2.47036 -2.95362
391 1 -16.0749 -7.06663 4.36342 -2.66084
392 1 -14.2465 -6.97948 2.40797 -3.3688
393 1 -12.4924 -5.30739 2.6285 -3.48155
394 1 -12.5698 -7.15115 4.53054 -3.52054
395 1 -14.3536 -5.25234 4.43431 -3.46616
396 1 -10.8642 -7.02765 2.51876 -3.4719
397 1 -8.86091 -5.36832 2.60225 -3.51594
398 1 -8.85967 -6.99453 4.5719 -3.48096
399 1 -10.6225 -5.31498 4.53526 -3.50057
400 1 -7.06245 -7.19535 2.53 -3.45122
401 1 -5.34871 -5.35441 2.59021 -3.52496
402 1 -5.22495 -7.10075 4.53422 -3.49513
403 1 -6.90421 -5.33138 4.59681 -3.51737
404 1 -3.53085 -7.19455 2.48275 -3.44181
405 1 -1.93911 -5.28665 2.49416 -3.4162
406 1 -1.88269 -6.99239 4.44075 -3.53671
407 1 -3.74129 -5.24981 4.4223 -3.42389
408 1 0.0880014 -7.03802 2.73683 -3.49103
409 1 1.88574 -5.30839 2.57726 -3.47949
410 1 1.78296 -7.15298 4.55109 -3.50016
411 1 0.0897833 -5.40947 4.47401 -3.4773
412 1 3.60946 -7.16151 2.77751 -3.4996
413 1 5.36756 -5.28483 2.61801 -3.49158
414 1 5.40277 -7.04614 4.62641 -3.52353
415 1 3.59322 -5.39843 4.47012 -3.50438
416 1 7.22715 -7.09338 2.68542 -3.5406
417 1 8.86868 -5.24572 2.70726 -3.53451
418 1 8.98987 -7.20973 4.61952 -3.4696
419 1 7.14472 -5.11729 4.62049 -3.5327
420 1 10.5781 -7.22936 2.76031 -3.51627
421 1 12.4124 -5.40904 2.57478 -3.39587
422 1 12.386 -7.06939 4.65216 -3.52553
423 1 10.6509 -5.27694 4.54467 -3.51785
424 1 14.2647 -7.01023 2.73686 -3.2957
425 1 15.9622 -5.3539 2.76646 -2.97126
426 1 15.9334 -7.05009 4.62078 -2.67329
427 1 14.045 -5.25689 4.42164 -3.42199
428 1 -15.9366 -1.79891 2.79657 -3.06138
429 1 -15.9916 -3.41559 4.67405 -2.99124
430 1 -14.2834 -3.51478 2.49791 -3.43437
431 1 -12.3452 -1.79381 2.59324 -3.51063
432 1 -12.3684 -3.57795 4.54091 -3.49918
433 1 -14.2192 -1.67602 4.70058 -3.44854
434 1 -10.677 -3.62923 2.66165 -3.50268
435 1 -8.91227 -1.67408 2.74078 -3.48928
436 1 -8.68166 -3.5835 4.56692 -3.5248
437 1 -10.7021 -1.7965 4.58336 -3.54395
438 1 -7.09209 -3.54147 2.57271 -3.49262
439 1 -5.35032 -1.80062 2.70767 -3.52196
440 1 -5.30334 -3.47445 4.56798 -3.48478
441 1 -7.11645 -1.66834 4.53971 -3.50003
442 1 -3.36267 -3.48506 2.71669 -3.42964
443 1 -1.59224 -1.66529 2.67078 -3.49668
444 1 -1.84991 -3.69137 4.6938 -3.47526
445 1 -3.4569 -1.7743 4.5796 -3.51987
446 1 -0.0555435 -3.58858 2.72288 -3.52436
447 1 1.70619 -1.63945 2.57863 -3.53941
448 1 1.76519 -3.45457 4.47784 -3.51342
449 1 -0.00441951 -1.84873 4.61493 -3.47487
450 1 3.54454 -3.40762 2.63093 -3.48431
451 1 5.25425 -1.75818 2.69939 -3.47814
452 1 5.24442 -3.51437 4.5688 -3.5143
453 1 3.54819 -1.62781 4.50581 -3.51744
454 1 7.06992 -3.40738 2.60697 -3.49229
455 1 8.92431 -1.80405 2.67911 -3.46908
456 1 8.95965 -3.45337 4.44533 -3.4623
457 1 7.12853 -1.81231 4.51143 -3.53227
458 1 10.7808 -3.26616 2.71265 -3.43866
459 1 12.4153 -1.59948 2.67742 -3.50162
460 1 12.4193 -3.52455 4.61907 -3.48265
461 1 10.7686 -1.70097 4.68455 -3.49838
462 1 14.1244 -3.54312 2.70037 -3.4862
463 1 15.8346 -1.72444 2.58192 -3.13318
464 1 15.9545 -3.50121 4.54754 -3.02635
465 1 14.148 -1.76782 4.48723 -3.47677
466 1 -17.4977 -0.0473647 2.91497 -2.49807
467 1 -16.153 1.85207 2.61322 -3.17763
468 1 -16.0565 0.0673262 4.76323 -3.19649
469 1 -14.3795 0.0642513 2.73495 -3.50656
470 1 -12.4594 1.65869 2.558 -3.52472
471 1 -12.4855 0.0442196 4.53693 -3.49864
472 1 -14.3511 1.82876 4.47196 -3.47329
473 1 -10.5965 -0.049984 2.60234 -3.46376
474 1 -8.93502 1.83474 2.62343 -3.49681
475 1 -8.88569 0.0997933 4.50604 -3.46676
476 1 -10.6645 1.65303 4.42343 -3.46847
477 1 -7.13348 0.126926 2.58636 -3.5262
478 1 -5.29903 1.75706 2.60061 -3.5166
479 1 -5.29768 0.0620282 4.4725 -3.53389
480 1 -7.17549 1.94776 4.55876 -3.44592
481 1 -3.4478 -0.00670565 2.58921 -3.5206
482 1 -1.80164 1.87027 2.70927 -3.50525
483 1 -1.69193 -0.036931 4.61592 -3.49958
484 1 -3.45528 1.82586 4.56327 -3.51806
485 1 0.0652412 0.175276 2.7186 -3.48018
486 1 1.69587 1.89747 2.71597 -3.44918
487 1 1.74931 0.0873215 4.60368 -3.50226
488 1 -0.0968667 1.81552 4.6021 -3.49701
489 1 3.53957 0.165037 2.70252 -3.56801
490 1 5.3593 1.86672 2.666 -3.48254
491 1 5.4362 0.0559097 4.53939 -3.53032
492 1 3.68189 1.86788 4.66433 -3.50013
493 1 7.0617 -0.0587661 2.62268 -3.52214
494 1 8.79609 1.80403 2.68707 -3.49277
495 1 8.90724 0.0550267 4.57918 -3.52588
496 1 7.18958 1.78755 4.48728 -3.4919
497 1 10.543 0.0471736 2.67802 -3.51891
498 1 12.4712 1.76552 2.65767 -3.49163
499 1 12.4219 0.0676524 4.6122 -3.54585
500 1 10.5921 1.91203 4.5911 -3.51366
501 1 14.3469 0.221897 2.6118 -3.4823
502 1 15.9123 2.14242 2.70391 -3.07419
503 1 15.8901 -0.125067 4.52067 -3.11123
504 1 14.3039 1.8136 4.5029 -3.42099
505 1 17.3087 0.240067 2.81514 -2.42344
506 1 -16.1292 5.36234 2.59014 -2.95533
507 1 -15.9145 3.69246 4.51718 -3.08159
508 1 -14.305 3.44379 2.63055 -3.4381
509 1 -12.3087 5.44863 2.66273 -3.47513
510 1 -12.451 3.43738 4.34451 -3.49801
511 1 -14.1226 5.19955 4.34845 -3.4088
512 1 -10.6135 3.55222 2.69857 -3.49407
513 1 -8.76526 5.29036 2.64791 -3.53565
514 1 -8.8793 3.44282 4.5964 -3.45577
515 1 -10.6604 5.42712 4.40753 -3.51815
516 1 -7.04226 3.56576 2.61792 -3.52668
517 1 -5.21964 5.36486 2.48849 -3.47474
518 1 -5.21123 3.56981 4.43332 -3.4771
519 1 -7.05116 5.23231 4.65422 -3.51526
520 1 -3.51131 3.56414 2.71114 -3.49442
521 1 -1.65013 5.42893 2.65945 -3.52528
522 1 -1.63206 3.75087 4.55825 -3.50367
523 1 -3.59746 5.3665 4.47455 -3.47304
524 1 0.041831 3.59703 2.81369 -3.47966
525 1 1.91057 5.15039 2.65422 -3.43399
526 1 1.92459 3.55209 4.57937 -3.51497
527 1 0.0777388 5.43922 4.78966 -3.47811
528 1 3.52349 3.37596 2.66728 -3.44716
529 1 5.34909 5.38228 2.74507 -3.47176
530 1 5.37414 3.63365 4.60153 -3.4688
531 1 3.73153 5.28768 4.47062 -3.4797
532 1 7.05892 3.54771 2.76981 -3.47581
533 1 8.92818 5.32082 2.53832 -3.48575
534 1 8.87871 3.80067 4.51088 -3.5095
535 1 7.04322 5.41018 4.48055 -3.4877
536 1 10.6073 3.5121 2.61343 -3.5346
537 1 12.4918 5.37971 2.55929 -3.51024
538 1 12.5001 3.35157 4.55198 -3.44662
539 1 10.789 5.31987 4.51361 -3.54249
540 1 14.0792 3.56647 2.69386 -3.38165
541 1 15.7414 5.25994 2.481 -3.04357
542 1 15.8404 3.87198 4.61064 -3.05647
543 1 14.0547 5.45676 4.50712 -3.43198
544 1 -16.0458 6.8384 4.54319 -2.71619
545 1 -14.184 7.15054 2.80903 -3.35175
546 1 -12.2683 8.80012 2.64062 -3.40466
547 1 -12.6102 7.25205 4.66743 -3.45967
548 1 -14.4281 8.92343 4.52948 -3.00459
549 1 -10.5303 7.17322 2.57553 -3.43914
550 1 -8.81709 8.87767 2.59898 -3.4763
551 1 -8.78005 7.01728 4.56145 -3.50084
552 1 -10.6247 8.77169 4.50189 -3.52312
553 1 -7.02996 7.13161 2.64639 -3.52584
554 1 -5.40277 9.07111 2.54579 -3.50567
555 1 -5.3824 7.03587 4.55527 -3.51088
556 1 -7.13393 8.88574 4.72179 -3.51613
557 1 -3.61702 7.17701 2.7607 -3.47086
558 1 -1.81434 8.7708 2.73257 -3.48765
559 1 -1.88436 7.02725 4.60884 -3.4539
560 1 -3.64325 8.82265 4.59251 -3.48045
561 1 0.324537 6.92305 2.6895 -3.40749
562 1 1.54929 8.83592 2.5882 -3.41718
563 1 1.9079 7.09405 4.66988 -3.48157
564 1 0.0223897 8.71011 4.55364 -3.5284
565 1 3.49291 7.15327 2.63982 -3.56405
566 1 5.29898 8.91007 2.5731 -3.48038
567 1 5.32723 7.28143 4.53173 -3.53361
568 1 3.43615 9.05175 4.55276 -3.52956
569 1 7.03377 7.15197 2.57413 -3.50608
570 1 8.78117 8.93235 2.70883 -3.50478
571 1 8.77788 7.13071 4.53603 -3.48969
572 1 7.13679 8.86469 4.45885 -3.45315
573 1 10.5498 7.04175 2.59925 -3.51815
574 1 12.2051 9.07722 2.74855 -3.39225
575 1 12.427 7.24158 4.43939 -3.45131
576 1 10.6804 8.83979 4.45669 -3.42986
577 1 14.1896 7.15919 2.63894 -3.30665
578 1 15.8213 7.08247 4.48001 -2.73935
579 1 14.1567 9.10581 4.47677 -3.13504
580 1 -13.9213 10.4397 2.72225 -2.73971
581 1 -12.4493 12.3951 2.47135 -2.82832
582 1 -12.3516 10.7505 4.50428 -3.29534
583 1 -10.66 10.7409 2.51686 -3.50274
584 1 -8.87194 12.4871 2.42666 -3.41072
585 1 -8.87009 10.7076 4.65529 -3.49981
586 1 -10.6232 12.5766 4.50206 -3.26563
587 1 -7.30378 10.6767 2.66457 -3.4251
588 1 -5.38061 12.2124 2.58693 -3.48267
589 1 -5.26468 10.6703 4.60369 -3.48276
590 1 -6.87637 12.4919 4.56463 -3.46836
591 1 -3.42119 10.7127 2.61458 -3.54271
592 1 -1.66485 12.5338 2.75074 -3.43658
593 1 -1.8571 10.5814 4.74331 -3.48355
594 1 -3.46518 12.415 4.55768 -3.52573
595 1 -0.138998 10.6025 2.55618 -3.48132
596 1 1.68518 12.3244 2.66784 -3.53079
597 1 1.56463 10.6426 4.62938 -3.45345
598 1 -0.173797 12.4774 4.59308 -3.44015
599 1 3.49424 10.5394 2.57619 -3.4728
600 1 5.15043 12.3247 2.54308 -3.52957
601 1 5.21844 10.7117 4.51826 -3.4822
602 1 3.37308 12.1594 4.52167 -3.42555
603 1 6.97353 10.6065 2.59045 -3.50834
604 1 8.71112 12.5293 2.53352 -3.45614
605 1 8.77132 10.7614 4.4879 -3.48398
606 1 7.02155 12.3445 4.46769 -3.47563
607 1 10.4584 10.7122 2.53122 -3.42965
608 1 11.8312 12.6915 2.62801 -2.8861
609 1 12.3932 10.9089 4.3828 -3.3001
610 1 10.4631 12.6157 4.62218 -3.31212
611 1 13.8161 11.0063 2.49575 -2.67382
612 1 -10.5103 14.1921 2.66165 -2.70456
613 1 -8.8178 14.1582 4.4253 -3.09919
614 1 -6.94038 14.2483 2.63066 -3.41702
615 1 -4.99804 15.9151 2.61025 -3.01289
616 1 -5.1907 14.2395 4.57455 -3.43109
617 1 -6.80547 16.0376 4.43911 -2.68896
618 1 -3.66542 13.9699 2.64537 -3.41799
619 1 -1.90952 15.791 2.6312 -3.16326
620 1 -1.66898 14.2459 4.71917 -3.4175
621 1 -3.4509 16.028 4.6127 -3.02564
622 1 -0.00251213 14.2511 2.63742 -3.47369
623 1 1.98029 16.0788 2.63872 -3.13068
624 1 1.9061 14.2014 4.47267 -3.51961
625 1 0.0504948 16.0808 4.55774 -3.22696
626 1 3.52104 14.1886 2.57733 -3.39248
627 1 5.16266 15.9185 2.60196 -3.01367
628 1 5.22613 14.0945 4.43041 -3.48137
629 1 3.62116 16.1013 4.50189 -3.00638
630 1 7.06451 14.1478 2.64218 -3.37837
631 1 8.64059 14.2651 4.70188 -3.08976
632 1 6.70574 15.9492 4.50096 -2.76246
633 1 10.1957 14.502 2.79091 -2.67624
634 1 0.0150193 17.5749 2.44346 -2.29996
635 1 -5.36093 -15.9196 6.33854 -3.00338
636 1 -6.84687 -16.0578 8.28147 -2.70874
637 1 -1.90095 -16.1823 6.29985 -3.04899
638 1 -3.75907 -16.1379 8.32493 -3.00672
639 1 -0.179954 -17.6794 6.40546 -2.33107
640 1 1.72338 -16.2378 6.39646 -3.11046
641 1 -0.110645 -16.4479 8.42906 -3.12043
642 1 5.16942 -16.1142 6.46936 -2.95231
643 1 3.43583 -16.06 8.39137 -3.02754
644 1 7.04267 -16.0207 8.28663 -2.68704
645 1 -12.3029 -12.0892 6.38799 -2.8758
646 1 -10.6985 -13.9103 6.42818 -2.71286
647 1 -8.87335 -12.3479 6.63218 -3.43769
648 1 -8.68836 -14.2068 8.26477 -3.09981
649 1 -10.6721 -12.2411 8.26248 -3.33173
650 1 -7.06572 -14.148 6.44836 -3.33731
651 1 -5.32041 -12.3188 6.57684 -3.50349
652 1 -5.37544 -14.1308 8.32632 -3.46617
653 1 -7.11818 -12.3319 8.39833 -3.48774
654 1 -3.52923 -14.1652 6.35921 -3.47788
655 1 -1.79582 -12.5711 6.62883 -3.46148
656 1 -1.8342 -14.4743 8.4433 -3.48559
657 1 -3.63849 -12.4121 8.26333 -3.45492
658 1 -0.0657716 -14.4869 6.56285 -3.5226
659 1 1.76911 -12.4796 6.51241 -3.48497
660 1 1.67157 -14.3869 8.43351 -3.43569
661 1 0.0655881 -12.6315 8.30327 -3.44849
662 1 3.5427 -14.4044 6.51852 -3.44359
663 1 5.38187 -12.5599 6.66317 -3.49937
664 1 5.28665 -14.3021 8.32416 -3.44138
665 1 3.39842 -12.536 8.29241 -3.52744
666 1 6.97656 -14.505 6.32674 -3.26348
667 1 8.7606 -12.367 6.54239 -3.41943
668 1 8.92662 -14.2381 8.51558 -3.07474
669 1 7.12229 -12.4911 8.43826 -3.48679
670 1 10.5272 -13.9236 6.66654 -2.68284
671 1 12.5226 -12.3012 6.44727 -2.82223
672 1 10.6994 -12.5632 8.48662 -3.25445
673 1 -14.2234 -10.4711 6.41116 -2.74058
674 1 -12.5403 -8.78122 6.39153 -3.4445
675 1 -12.3773 -10.4385 8.19337 -3.33791
676 1 -14.1981 -8.76853 8.24454 -3.121
677 1 -10.5552 -10.4948 6.36486 -3.46059
678 1 -8.81521 -8.84344 6.47987 -3.46268
679 1 -8.83516 -10.5441 8.38125 -3.52638
680 1 -10.5899 -8.81984 8.22493 -3.46711
681 1 -7.06644 -10.574 6.48684 -3.52516
682 1 -5.1665 -8.90742 6.39877 -3.52924
683 1 -5.18727 -10.4152 8.42632 -3.44504
684 1 -6.85254 -8.77555 8.27312 -3.46853
685 1 -3.33938 -10.6661 6.51176 -3.4901
686 1 -1.77183 -8.83157 6.49384 -3.45439
687 1 -1.54846 -10.7401 8.40844 -3.45525
688 1 -3.37874 -8.86123 8.34838 -3.44333
689 1 0.00551611 -10.6666 6.62142 -3.50351
690 1 1.80186 -8.86707 6.52657 -3.48463
691 1 1.76451 -10.5994 8.47163 -3.51428
692 1 -0.0304128 -8.88589 8.53325 -3.49326
693 1 3.56208 -10.6412 6.54358 -3.51632
694 1 5.43055 -8.91667 6.38323 -3.50288
695 1 5.31332 -10.685 8.37334 -3.51308
696 1 3.45808 -8.89425 8.38039 -3.44772
697 1 7.08914 -10.6774 6.633 -3.44923
698 1 8.90419 -8.95073 6.61051 -3.54429
699 1 8.97789 -10.558 8.58506 -3.47731
700 1 7.01899 -8.90155 8.4115 -3.5077
701 1 10.6953 -10.6527 6.7043 -3.52554
702 1 12.3901 -8.80915 6.57285 -3.47322
703 1 12.3661 -10.7006 8.54865 -3.32011
704 1 10.7203 -8.89623 8.48196 -3.4539
705 1 13.9968 -10.5617 6.55703 -2.75478
706 1 14.1633 -8.77934 8.39477 -3.12699
707 1 -15.9591 -5.24484 6.34313 -2.95884
708 1 -15.8722 -6.99532 8.32527 -2.74779
709 1 -14.4523 -7.19689 6.32997 -3.29816
710 1 -12.4219 -5.37726 6.29307 -3.51743
711 1 -12.3458 -7.1423 8.34603 -3.49562
712 1 -14.07 -5.43336 8.38625 -3.44148
713 1 -10.6031 -7.02748 6.36958 -3.49742
714 1 -8.83182 -5.32417 6.45667 -3.52517
715 1 -8.81447 -7.15445 8.22218 -3.49342
716 1 -10.6532 -5.27248 8.40075 -3.47857
717 1 -6.97385 -7.17101 6.43525 -3.50944
718 1 -5.08553 -5.36051 6.48028 -3.4941
719 1 -4.93331 -7.09098 8.33312 -3.46932
720 1 -6.9269 -5.36167 8.25506 -3.52805
721 1 -3.46902 -7.08363 6.46702 -3.44673
722 1 -1.69104 -5.26808 6.48234 -3.47376
723 1 -1.71788 -7.14614 8.45623 -3.49397
724 1 -3.28248 -5.26803 8.35087 -3.47366
725 1 0.0410179 -7.05588 6.50723 -3.50412
726 1 1.77589 -5.36304 6.29445 -3.51185
727 1 1.8242 -7.18392 8.32023 -3.44416
728 1 0.120948 -5.35684 8.3084 -3.53505
729 1 3.5308 -7.18654 6.42839 -3.52621
730 1 5.27279 -5.24306 6.44029 -3.5209
731 1 5.3267 -7.08915 8.29026 -3.52483
732 1 3.46879 -5.36844 8.35349 -3.53357
733 1 7.15955 -7.02127 6.43136 -3.5258
734 1 8.96557 -5.31016 6.32915 -3.48806
735 1 8.93906 -6.99476 8.28697 -3.54301
736 1 7.11769 -5.28145 8.28031 -3.48601
737 1 10.6946 -7.05337 6.55507 -3.50638
738 1 12.5281 -5.34632 6.4274 -3.51882
739 1 12.3657 -7.04781 8.47123 -3.53341
740 1 10.723 -5.20774 8.54756 -3.44423
741 1 14.244 -7.10199 6.51421 -3.31319
742 1 15.7242 -5.1401 6.65269 -3.00238