ITEM: TIMESTEP
112000
ITEM: NUMBER OF ATOMS
3804
ITEM: BOX BOUNDS ss ss pp
-1.8146068182699324e+01 1.8189047208124602e+01
-1.7597151622927075e+01 1.7312754620862677e+01
-2.4292800000000003e+00 4.5809280000000001e+01
ITEM: ATOMS id type x y z c_peratom
1 1 -5.70309 -14.6275 -2.05066 -2.96775
2 1 -7.40795 -14.5437 0.0936404 -2.70685
3 1 -2.02181 -14.7461 -1.85475 -3.13252
4 1 -3.88434 -14.8688 -0.0114089 -3.00645
5 1 0.0328306 -16.4646 -2.0189 -2.48923
6 1 1.64576 -16.2358 44.3942 -2.83455
7 1 -0.193056 -14.8964 -0.0260929 -3.24654
8 1 5.75327 -15.2257 44.9682 -2.83838
9 1 3.82271 -15.3695 -1.40548 -2.8813
10 1 7.42741 -13.9897 0.873256 -2.62778
11 1 -12.6212 -10.7092 -1.52644 -2.83132
12 1 -10.9187 -12.5165 -2.02599 -2.69279
13 1 -9.06591 -10.9237 -1.69835 -3.46201
14 1 -9.20781 -12.8052 0.0230327 -3.11902
15 1 -10.9166 -11.0245 0.0925568 -3.30454
16 1 -7.46314 -12.8176 -1.81529 -3.35072
17 1 -5.51203 -11.2971 -1.75016 -3.50456
18 1 -5.57273 -12.9876 0.159896 -3.40883
19 1 -7.30005 -11.2556 0.175371 -3.52767
20 1 -3.80233 -12.9829 -1.87579 -3.42785
21 1 -2.09229 -13.0995 44.6062 -3.40134
22 1 -1.90226 -13.0466 0.0560982 -3.45435
23 1 -3.7627 -11.4647 0.206872 -3.46098
24 1 -0.127242 -14.6112 44.3205 -3.34792
25 1 1.62616 -12.878 44.6381 -3.4755
26 1 1.59845 -14.6148 -1.83425 -3.27807
27 1 -0.138788 -13.0033 -1.84188 -3.50216
28 1 3.41972 -14.6021 44.4785 -3.33591
29 1 5.11462 -12.8681 44.6011 -3.4663
30 1 5.73249 -13.7019 -1.23732 -3.23906
31 1 3.34626 -12.9773 -1.74078 -3.44632
32 1 7.52077 -13.5297 44.9709 -3.12284
33 1 9.28347 -11.8264 45.2427 -3.23423
34 1 9.03944 -12.0785 0.98187 -3.10496
35 1 7.60279 -12.0684 -1.09013 -3.3723
36 1 10.8774 -12.1123 -0.829557 -2.63574
37 1 12.6852 -10.2067 -0.8316 -2.86456
38 1 10.9814 -10.1684 1.01372 -3.34886
39 1 -14.4189 -8.84451 -1.90543 -2.68404
40 1 -12.6039 -7.34014 -1.59463 -3.4506
41 1 -12.7118 -9.16299 0.317463 -3.28737
42 1 -14.3947 -7.33783 0.348005 -3.13746
43 1 -10.8054 -9.18915 -1.85833 -3.45723
44 1 -9.05682 -7.49938 -1.54152 -3.4941
45 1 -9.05746 -9.33981 0.224927 -3.52434
46 1 -10.95 -7.54563 0.222421 -3.48702
47 1 -7.19548 -9.33095 -1.52211 -3.53344
48 1 -5.50818 -9.3635 44.8027 -3.4948
49 1 -5.44123 -9.52914 0.407753 -3.53025
50 1 -7.22733 -7.73857 0.551049 -3.47364
51 1 -3.68328 -11.1977 44.6033 -3.48104
52 1 -1.95309 -9.42875 44.699 -3.48095
53 1 -2.04514 -11.3207 -1.66187 -3.49138
54 1 -3.74233 -9.5029 -1.66042 -3.54408
55 1 -0.261146 -11.2805 44.5743 -3.50316
56 1 1.65737 -9.47145 44.7778 -3.53049
57 1 1.80418 -11.1893 -1.6139 -3.47264
58 1 -0.317261 -9.59936 -1.67444 -3.48091
59 1 3.44749 -11.1802 44.6792 -3.47078
60 1 5.2164 -9.51938 44.6981 -3.43699
61 1 5.10636 -11.1879 -1.62437 -3.53678
62 1 3.47342 -9.37825 -1.53338 -3.45548
63 1 6.93524 -11.1476 44.728 -3.47675
64 1 8.79816 -9.38757 44.8524 -3.48427
65 1 9.35306 -10.2342 -1.04483 -3.46333
66 1 6.95517 -9.48856 -1.44037 -3.50779
67 1 11.1218 -10.059 45.5476 -3.32308
68 1 12.8675 -8.27074 45.7763 -3.31745
69 1 13.0393 -8.61349 1.25162 -3.27114
70 1 11.0673 -8.30407 -0.642351 -3.47849
71 1 14.4574 -8.19884 -0.734126 -2.73885
72 1 14.7056 -6.70478 1.48758 -3.11906
73 1 -16.0505 -3.93703 -1.38417 -2.95261
74 1 -16.2137 -5.48339 0.372302 -2.69724
75 1 -14.3957 -5.66652 -1.51099 -3.35034
76 1 -12.519 -3.77562 -1.28158 -3.50134
77 1 -12.5473 -5.71685 0.369346 -3.46723
78 1 -14.3595 -3.9814 0.660437 -3.45246
79 1 -10.6387 -5.6714 -1.53071 -3.51003
80 1 -8.79303 -5.58468 44.9368 -3.50264
81 1 -8.99645 -5.94254 0.481618 -3.53535
82 1 -10.7476 -4.08368 0.373104 -3.4972
83 1 -7.12561 -7.4805 44.9111 -3.49381
84 1 -5.30081 -5.7162 44.9399 -3.50758
85 1 -5.47157 -7.5255 -1.48095 -3.49033
86 1 -7.28428 -5.75573 -1.45328 -3.49025
87 1 -3.6408 -7.48236 44.784 -3.5086
88 1 -1.84718 -5.68671 45.05 -3.52524
89 1 -1.77581 -7.77399 -1.6201 -3.46731
90 1 -3.61307 -5.89801 -1.3017 -3.48203
91 1 -0.110471 -7.60192 44.6934 -3.49992
92 1 1.65208 -5.91573 44.9889 -3.51106
93 1 1.66637 -7.79291 -1.5404 -3.52032
94 1 -0.130988 -6.01533 -1.30571 -3.48179
95 1 3.57636 -7.70501 44.9313 -3.51256
96 1 5.35855 -5.84921 45.0219 -3.50145
97 1 5.25906 -7.66784 -1.34132 -3.4989
98 1 3.42943 -6.0285 -1.2421 -3.53047
99 1 7.0275 -7.77568 44.7972 -3.47425
100 1 8.75591 -5.82318 45.0208 -3.54256
101 1 8.52332 -7.70941 -1.3919 -3.48523
102 1 6.95138 -5.90328 -1.33943 -3.4835
103 1 10.4646 -7.58171 45.136 -3.51174
104 1 12.1551 -5.79048 45.3409 -3.51141
105 1 12.696 -6.51456 -0.493456 -3.4196
106 1 10.4106 -5.90524 -1.14085 -3.48541
107 1 14.6395 -6.33384 45.7161 -3.20387
108 1 16.3927 -4.69224 46.0906 -2.80379
109 1 16.2898 -4.7581 1.39433 -2.75601
110 1 14.506 -4.82896 -0.337532 -3.37952
111 1 -15.9162 -0.236236 -1.205 -3.02755
112 1 -16.0499 -2.098 0.559341 -3.05968
113 1 -14.2313 -2.08883 -1.24456 -3.48537
114 1 -12.3143 -1.83234 45.2353 -3.46088
115 1 -12.5962 -2.14862 0.780982 -3.52258
116 1 -14.2849 -0.355982 0.739949 -3.47993
117 1 -10.6616 -3.7454 45.0433 -3.53615
118 1 -8.88563 -2.04236 45.0588 -3.4963
119 1 -8.90801 -3.82558 -1.32262 -3.48613
120 1 -10.6834 -2.08185 -1.21906 -3.5073
121 1 -7.0951 -3.80439 45.1147 -3.51171
122 1 -5.32797 -2.04019 45.1881 -3.52426
123 1 -5.41159 -4.08169 -1.37873 -3.53529
124 1 -7.17859 -2.15965 -1.06677 -3.44564
125 1 -3.6471 -3.84059 44.9649 -3.46242
126 1 -1.73452 -2.32772 45.1124 -3.4803
127 1 -1.85992 -4.19584 -1.20619 -3.47653
128 1 -3.598 -2.18871 -1.10907 -3.52156
129 1 0.0511609 -3.9814 44.9357 -3.47525
130 1 1.71726 -2.2024 45.2757 -3.47263
131 1 1.62708 -4.24009 -1.1713 -3.51841
132 1 -0.0591301 -2.38904 -1.1594 -3.49795
133 1 3.43712 -4.04057 45.17 -3.52768
134 1 5.20202 -2.24459 45.1755 -3.47084
135 1 5.16373 -4.16252 -1.29976 -3.48775
136 1 3.52567 -2.37261 -1.18677 -3.48932
137 1 6.95764 -4.0193 45.0507 -3.51857
138 1 8.75247 -2.16235 45.2396 -3.50724
139 1 8.79158 -4.08902 -1.28074 -3.44403
140 1 6.94727 -2.4405 -1.12874 -3.54066
141 1 10.5151 -3.88661 45.0462 -3.49918
142 1 12.2563 -2.16161 45.3868 -3.47808
143 1 12.1812 -4.1173 -1.03081 -3.49764
144 1 10.3739 -2.44368 -0.984508 -3.45539
145 1 13.9088 -3.91253 45.3301 -3.4842
146 1 15.9359 -2.29522 45.3335 -3.13827
147 1 16.3344 -3.10827 -0.396175 -2.99542
148 1 13.9712 -2.42586 -1.00143 -3.4965
149 1 -18.1509 2.51567 41.0031 -2.6359
150 1 -15.8593 1.57991 45.2659 -3.15522
151 1 -16.1525 1.34272 0.858206 -3.11702
152 1 -14.1414 -0.269802 45.1741 -3.48489
153 1 -12.3955 1.58096 45.3473 -3.52547
154 1 -12.4425 -0.243022 -1.05811 -3.5269
155 1 -14.2744 1.42467 -1.05549 -3.43418
156 1 -10.5901 -0.160702 45.3129 -3.50141
157 1 -8.82522 1.57341 45.4405 -3.48985
158 1 -8.77319 -0.410874 -1.03951 -3.50441
159 1 -10.5331 1.56926 -0.940738 -3.52519
160 1 -7.13442 -0.222878 45.3435 -3.51192
161 1 -5.05902 1.36217 45.4838 -3.50585
162 1 -5.46063 -0.522574 -0.953093 -3.48411
163 1 -7.08828 1.36341 -0.99905 -3.47878
164 1 -3.42939 -0.414702 45.318 -3.47349
165 1 -1.75848 1.42398 45.4754 -3.50374
166 1 -1.68524 -0.503939 -0.95027 -3.49991
167 1 -3.58914 1.32567 -0.670633 -3.48049
168 1 0.0958883 -0.412883 45.3162 -3.50939
169 1 1.7403 1.50579 45.4833 -3.52545
170 1 1.7291 -0.631793 -0.973086 -3.52753
171 1 -0.00241397 1.25718 -0.890105 -3.49549
172 1 3.53319 -0.47985 45.3766 -3.52491
173 1 5.36554 1.24139 45.493 -3.48498
174 1 5.2635 -0.554541 -0.957978 -3.43239
175 1 3.62834 1.22018 -0.89401 -3.48699
176 1 6.87923 -0.571309 45.3521 -3.45655
177 1 8.77624 1.19907 45.5504 -3.51763
178 1 8.84089 -0.546632 -0.824642 -3.51706
179 1 6.8693 1.20364 -0.789838 -3.47259
180 1 10.4917 -0.472486 45.4774 -3.47411
181 1 12.2555 1.29404 45.6942 -3.49241
182 1 12.254 -0.557979 -0.707203 -3.51255
183 1 10.5175 1.20245 -0.822996 -3.465
184 1 14.3838 -0.567929 45.5197 -3.41104
185 1 15.8584 1.36543 45.6359 -3.23493
186 1 15.8337 -0.593774 -0.765838 -3.26447
187 1 14.1101 1.28718 -0.683362 -3.5428
188 1 17.4841 -0.446115 -2.52814 -2.56935
189 1 -15.7596 4.97281 45.5054 -3.00448
190 1 -16.0873 3.16471 -0.913481 -2.98847
191 1 -14.0764 3.31189 45.335 -3.41784
192 1 -12.3421 5.04483 45.6179 -3.45672
193 1 -12.3923 3.24782 -0.958902 -3.47874
194 1 -14.1793 4.94111 -0.639057 -3.39493
195 1 -10.5051 3.42569 45.4096 -3.48142
196 1 -8.81061 5.10336 45.7025 -3.50527
197 1 -8.78197 3.21708 -0.5697 -3.43748
198 1 -10.7011 4.92386 -0.815682 -3.49214
199 1 -6.87471 3.19795 45.5648 -3.48669
200 1 -5.22579 5.18847 45.8674 -3.50143
201 1 -5.35238 3.15542 -0.854526 -3.47996
202 1 -7.09098 4.91606 -0.665632 -3.48692
203 1 -3.50361 3.24345 45.5712 -3.50379
204 1 -1.71914 5.18967 45.7739 -3.47098
205 1 -1.86655 3.06731 -0.804355 -3.51203
206 1 -3.42968 4.96633 -0.743768 -3.49191
207 1 -0.190628 3.23306 45.5558 -3.48158
208 1 1.73808 4.84956 45.6241 -3.50952
209 1 1.72913 3.02436 -0.727869 -3.46554
210 1 -0.0133592 4.93988 -0.686581 -3.53415
211 1 3.60211 3.18956 45.5745 -3.50413
212 1 5.32848 4.94985 -2.51726 -3.50432
213 1 5.24992 3.07594 -0.775928 -3.52461
214 1 3.39125 4.72794 -0.697915 -3.43185
215 1 7.07494 3.07224 45.612 -3.49437
216 1 8.85248 4.83197 45.7538 -3.53091
217 1 8.60377 2.8281 -0.813085 -3.48605
218 1 7.06595 4.82986 -0.662031 -3.52136
219 1 10.5715 2.94332 45.5528 -3.43556
220 1 12.1583 4.66877 -2.35507 -3.45063
221 1 12.188 3.01605 -0.684679 -3.44551
222 1 10.4048 4.58107 -0.512074 -3.47087
223 1 14.0454 3.10749 45.8038 -3.48615
224 1 15.9191 4.66978 -2.47852 -2.96699
225 1 15.8956 3.04749 -0.672141 -3.11212
226 1 14.0937 4.62527 -0.397436 -3.41448
227 1 -15.616 6.84609 -1.05394 -2.90811
228 1 -13.9118 6.84582 45.5209 -3.31161
229 1 -12.1918 8.67939 45.6984 -3.40648
230 1 -12.5594 6.79941 -0.666977 -3.51899
231 1 -14.0419 8.82748 -0.479049 -3.07007
232 1 -10.653 6.94585 45.582 -3.46892
233 1 -8.82239 8.53481 45.9312 -3.46615
234 1 -8.79262 6.78666 -0.702101 -3.47654
235 1 -10.6613 8.49263 -0.494779 -3.52216
236 1 -6.99609 6.84526 45.6726 -3.46216
237 1 -5.15071 8.5872 45.9579 -3.50141
238 1 -5.00185 6.84054 -0.509746 -3.44828
239 1 -6.94305 8.45055 -0.604942 -3.49795
240 1 -3.393 6.972 45.7643 -3.48871
241 1 -1.58052 8.77053 -2.2609 -3.53239
242 1 -1.6967 6.87473 -0.592109 -3.48343
243 1 -3.3299 8.66351 -0.458121 -3.50347
244 1 0.11657 6.88015 -2.2922 -3.5204
245 1 1.96247 8.64375 -2.31563 -3.52107
246 1 2.00815 6.84548 -0.588651 -3.44859
247 1 0.205401 8.59458 -0.406851 -3.503
248 1 3.50185 6.68258 -2.49658 -3.51314
249 1 5.27274 8.50735 -2.34508 -3.54586
250 1 5.18027 6.59003 -0.513762 -3.55718
251 1 3.64488 8.52811 -0.391525 -3.44408
252 1 7.03518 6.71823 -2.35133 -3.51898
253 1 8.98429 8.43959 -2.35613 -3.51713
254 1 8.82269 6.47252 -0.429094 -3.49378
255 1 7.07556 8.19316 -0.431442 -3.50998
256 1 10.5224 6.56747 -2.32418 -3.45467
257 1 12.1886 8.28081 -2.18336 -3.38743
258 1 12.0225 6.36014 -0.378735 -3.5221
259 1 10.6227 8.33634 -0.246013 -3.48148
260 1 14.0345 6.27126 -2.21112 -3.35804
261 1 15.6797 6.41867 -0.519174 -2.68748
262 1 13.8968 8.16089 -0.412073 -3.12707
263 1 -14.4765 9.16109 45.2431 -2.8701
264 1 -12.6655 11.112 45.3499 -2.87877
265 1 -12.1969 10.4193 -0.514098 -3.24571
266 1 -10.3607 10.5092 46.0575 -3.45747
267 1 -8.57992 12.231 -2.19712 -3.32926
268 1 -8.74824 10.2206 -0.22141 -3.49449
269 1 -10.3497 12.2061 -0.279193 -3.25552
270 1 -6.94815 10.3996 -2.30174 -3.49167
271 1 -5.38291 12.3428 -2.06685 -3.46768
272 1 -5.25775 10.4707 -0.489357 -3.52383
273 1 -7.12794 12.2116 -0.14534 -3.494
274 1 -3.43926 10.4762 -2.20795 -3.50985
275 1 -1.67593 12.146 -2.10638 -3.48658
276 1 -1.42296 10.3505 -0.194731 -3.46354
277 1 -3.35921 12.1781 -0.305498 -3.52015
278 1 0.307828 10.4436 -2.1003 -3.52808
279 1 2.05728 12.2521 -2.0303 -3.46322
280 1 1.97992 10.3115 -0.193355 -3.53322
281 1 0.101799 12.1367 -0.138873 -3.44825
282 1 3.70771 10.4654 -2.20038 -3.47568
283 1 5.58674 11.9498 -2.11503 -3.50122
284 1 5.36371 10.1595 -0.234682 -3.49769
285 1 3.66799 12.0605 -0.117917 -3.42202
286 1 7.23512 10.145 -2.2285 -3.49875
287 1 8.83734 11.9505 -2.09517 -3.4128
288 1 8.94106 10.0931 -0.251932 -3.50663
289 1 7.26909 11.9221 -0.280925 -3.46114
290 1 10.7015 10.259 -2.12028 -3.48596
291 1 12.3536 11.9555 -1.826 -2.82724
292 1 12.3535 9.99545 -0.242969 -3.28742
293 1 10.5873 11.8271 -0.183951 -3.30879
294 1 13.8438 9.84342 -2.13458 -2.73012
295 1 -10.911 12.8602 45.486 -2.72344
296 1 -8.81233 14.133 -0.102624 -2.90939
297 1 -7.15563 14.1112 -2.04499 -3.15771
298 1 -5.05049 15.7742 -1.59712 -2.81482
299 1 -5.28843 13.7792 -0.210797 -3.4155
300 1 -6.87737 15.7067 0.234003 -2.66181
301 1 -3.33811 13.9028 -2.09596 -3.45514
302 1 -1.67164 15.6311 -1.77376 -3.08891
303 1 -1.59404 13.8415 -0.0276195 -3.41676
304 1 -3.32177 15.4607 0.0843044 -3.05314
305 1 0.0870334 13.9428 -2.03178 -3.52714
306 1 1.99154 15.6478 -1.75072 -3.06411
307 1 1.96994 13.6219 -0.0136912 -3.38688
308 1 0.0401275 15.6578 -0.0283993 -3.15109
309 1 3.7699 13.9527 -2.05782 -3.45814
310 1 5.49859 15.787 -1.97124 -2.90095
311 1 5.48838 13.636 0.0103267 -3.3722
312 1 3.79121 15.5933 0.0545777 -3.03866
313 1 7.24782 13.8947 -1.90384 -3.39007
314 1 8.76451 13.7629 0.0464487 -3.05368
315 1 6.76634 15.6247 0.102815 -2.72396
316 1 10.3272 13.6777 -1.64257 -2.72648
317 1 0.178438 17.0679 -1.92951 -2.38646
318 1 -5.51082 -14.7556 1.96822 -3.01076
319 1 -7.29299 -14.7729 3.7626 -2.74544
320 1 -2.16554 -14.9895 1.73018 -2.99281
321 1 -3.66794 -14.7659 3.67683 -2.85866
322 1 2.22849 -15.4617 0.546913 -2.96505
323 1 3.85483 -15.4348 2.45125 -2.58883
324 1 0.337656 -15.5862 2.29033 -2.6903
325 1 5.70825 -13.8666 2.69186 -3.09714
326 1 3.91806 -13.9225 4.57109 -3.11589
327 1 7.28245 -13.8974 4.52348 -2.74698
328 1 -12.8385 -11.0805 2.14815 -2.81983
329 1 -11.0364 -12.7015 1.91676 -2.72368
330 1 -9.2004 -11.2203 2.02491 -3.43338
331 1 -9.33714 -13.0659 3.87036 -3.1094
332 1 -11.076 -11.3193 4.08419 -3.30096
333 1 -7.39711 -13.0343 2.06738 -3.36397
334 1 -5.51572 -11.3261 2.19354 -3.51418
335 1 -5.44187 -13.198 3.88614 -3.35975
336 1 -7.40168 -11.4288 3.90099 -3.50242
337 1 -3.79978 -13.1071 1.91381 -3.38519
338 1 -2.00751 -11.4521 2.15485 -3.49375
339 1 -1.99316 -13.2661 4.01926 -3.28463
340 1 -3.69822 -11.6127 4.03276 -3.47047
341 1 -0.369795 -13.146 1.9486 -3.46701
342 1 1.54981 -12.9572 0.0457221 -3.50804
343 1 2.04203 -13.8544 2.53174 -3.2991
344 1 -0.21227 -11.4463 3.98783 -3.53171
345 1 3.81295 -13.7558 0.690543 -3.308
346 1 5.7777 -12.1868 0.815818 -3.49249
347 1 5.51102 -12.2611 4.53952 -3.38702
348 1 3.85089 -12.245 2.57744 -3.48214
349 1 7.51451 -12.1435 2.85696 -3.31718
350 1 9.08843 -10.2721 2.88523 -3.44492
351 1 9.15272 -12.1755 4.66784 -3.13731
352 1 7.32111 -10.3736 4.71292 -3.52124
353 1 10.8046 -11.9187 2.67934 -2.76524
354 1 12.6921 -10.2835 3.00853 -2.89583
355 1 10.869 -10.2803 4.70696 -3.38596
356 1 -14.4251 -9.14543 2.16243 -2.72655
357 1 -12.5823 -7.54202 2.30585 -3.42587
358 1 -12.723 -9.39281 3.99258 -3.30244
359 1 -14.8874 -7.39722 4.20765 -3.01484
360 1 -10.9893 -9.50638 2.15985 -3.51145
361 1 -9.00532 -7.73962 2.31283 -3.51586
362 1 -9.18754 -9.54652 4.0374 -3.52367
363 1 -10.9999 -7.75947 4.12981 -3.45895
364 1 -7.37015 -9.63462 2.11257 -3.47958
365 1 -5.48367 -7.8316 2.34477 -3.52731
366 1 -5.49584 -9.87908 4.14766 -3.48561
367 1 -7.14221 -7.91248 4.2801 -3.49647
368 1 -3.701 -9.65457 2.29347 -3.49211
369 1 -2.16359 -9.48869 0.245857 -3.49503
370 1 -2.11511 -9.74256 4.17998 -3.49573
371 1 -3.80591 -8.00727 4.34401 -3.51999
372 1 -0.168279 -11.3004 0.185759 -3.50055
373 1 1.60261 -9.54513 0.273475 -3.5019
374 1 1.51001 -11.436 2.1946 -3.52124
375 1 -0.254369 -9.63967 2.10769 -3.50489
376 1 3.44613 -11.2548 0.312901 -3.50964
377 1 5.18913 -9.5812 0.374654 -3.48479
378 1 5.76894 -10.4718 2.7672 -3.52819
379 1 3.45365 -9.79907 2.30364 -3.51776
380 1 7.46418 -10.3245 0.93842 -3.47727
381 1 9.22115 -8.49921 1.00421 -3.49759
382 1 9.07642 -8.58116 4.71364 -3.47866
383 1 7.45878 -8.5037 2.83872 -3.48866
384 1 10.9699 -8.45301 2.94861 -3.48277
385 1 12.7609 -6.87535 3.0855 -3.47785
386 1 12.8665 -8.60108 4.89204 -3.31783
387 1 10.9735 -6.92511 4.96016 -3.4985
388 1 14.5925 -8.71625 3.01954 -2.69011
389 1 14.7332 -6.83735 4.83488 -3.13589
390 1 -16.3003 -3.74491 2.34823 -2.99746
391 1 -16.4236 -5.50125 4.14 -2.71032
392 1 -14.6534 -5.77416 2.36607 -3.35098
393 1 -12.594 -4.22987 2.38918 -3.51575
394 1 -12.7583 -5.84987 4.24411 -3.50915
395 1 -14.513 -4.15612 4.27967 -3.41681
396 1 -10.8183 -5.95292 2.28952 -3.48418
397 1 -8.98248 -4.21846 2.53172 -3.49293
398 1 -9.12479 -6.05239 4.20519 -3.52387
399 1 -10.7924 -4.15437 4.21334 -3.45429
400 1 -7.18942 -5.87396 2.44115 -3.46825
401 1 -5.47281 -6.00912 0.433403 -3.51632
402 1 -5.49563 -6.08657 4.31067 -3.51165
403 1 -7.22736 -4.1687 4.25582 -3.47854
404 1 -3.77162 -7.79238 0.398402 -3.4349
405 1 -1.98343 -6.11502 0.537799 -3.51104
406 1 -1.98529 -7.97994 2.27294 -3.49323
407 1 -3.77591 -6.11785 2.39029 -3.51614
408 1 -0.221094 -7.92105 0.372044 -3.50884
409 1 1.55684 -6.10465 0.467629 -3.47657
410 1 1.597 -7.90073 2.24402 -3.46227
411 1 -0.134478 -6.28997 2.38843 -3.48716
412 1 3.40088 -7.89067 0.460872 -3.49992
413 1 5.16686 -6.03573 0.661908 -3.50928
414 1 5.1021 -7.85251 2.32953 -3.51825
415 1 3.2038 -6.21253 2.28199 -3.46017
416 1 6.91286 -7.81623 0.494495 -3.46424
417 1 8.61868 -6.09931 0.695555 -3.50375
418 1 9.20269 -6.79282 3.04082 -3.48926
419 1 6.83688 -6.0398 2.63329 -3.48565
420 1 11.0225 -6.75253 1.23196 -3.47809
421 1 12.753 -4.85513 1.53033 -3.51997
422 1 12.8512 -5.1581 4.93555 -3.44755
423 1 11.0376 -5.07557 3.25688 -3.50507
424 1 14.6176 -4.96585 3.25914 -3.36315
425 1 16.5336 -3.28652 3.41687 -2.94656
426 1 16.501 -5.13329 5.14069 -2.67552
427 1 14.47 -3.44195 5.31114 -3.45355
428 1 -16.1593 -0.633816 2.56024 -3.14752
429 1 -16.1634 -2.36963 4.34677 -3.07433
430 1 -14.3835 -2.32032 2.47721 -3.45123
431 1 -12.4346 -0.586291 2.72792 -3.49979
432 1 -12.6973 -2.50441 4.3417 -3.54514
433 1 -14.3853 -0.651646 4.51487 -3.47643
434 1 -10.7693 -2.46232 2.45329 -3.44426
435 1 -9.04758 -2.29859 0.854461 -3.45432
436 1 -9.11547 -2.49899 4.4457 -3.46322
437 1 -10.7808 -0.697909 4.53693 -3.50792
438 1 -7.28649 -4.10589 0.476118 -3.52592
439 1 -5.357 -2.45801 0.721592 -3.49596
440 1 -5.46198 -4.31617 2.48786 -3.45682
441 1 -7.03505 -2.43066 2.58891 -3.44946
442 1 -3.56854 -4.19217 0.554962 -3.50265
443 1 -1.83423 -2.40094 0.856094 -3.5199
444 1 -1.8519 -4.50316 2.56521 -3.51245
445 1 -3.60233 -2.47889 2.58622 -3.5201
446 1 -0.141236 -4.44953 0.771081 -3.45335
447 1 1.60003 -2.59908 0.842837 -3.49295
448 1 1.55975 -4.39208 2.51431 -3.49866
449 1 -0.0247705 -2.4709 2.71494 -3.4987
450 1 3.40987 -4.21998 0.597359 -3.50693
451 1 5.11008 -2.43329 0.881633 -3.48026
452 1 5.02449 -4.41935 2.5913 -3.49251
453 1 3.29005 -2.51675 2.84093 -3.54139
454 1 6.93606 -4.30325 0.772229 -3.4986
455 1 8.49997 -2.4398 0.88565 -3.49127
456 1 8.56298 -4.39621 2.61249 -3.48363
457 1 6.6687 -2.72998 2.74846 -3.463
458 1 10.3484 -4.30928 0.793632 -3.53551
459 1 12.0954 -2.47309 0.863651 -3.5176
460 1 12.727 -3.28546 3.39409 -3.47359
461 1 10.3408 -2.66187 2.67694 -3.53121
462 1 14.598 -3.11579 1.43631 -3.41131
463 1 16.4973 -1.46306 1.58384 -3.01519
464 1 16.2701 -1.57439 5.35678 -3.02704
465 1 14.7258 -1.54364 3.53546 -3.46426
466 1 -17.5043 1.51307 2.87397 -2.5563
467 1 -16.0614 3.41139 2.61178 -3.15056
468 1 -16.2332 0.944465 4.74873 -3.13568
469 1 -14.4743 1.17835 2.89118 -3.52434
470 1 -12.519 1.38493 0.838487 -3.47829
471 1 -12.4871 1.06204 4.59846 -3.48683
472 1 -14.4262 2.73225 4.78121 -3.4876
473 1 -10.7148 -0.418467 0.783096 -3.52723
474 1 -8.82638 1.23997 1.14921 -3.51194
475 1 -9.04887 -0.772216 2.65552 -3.47665
476 1 -10.7331 1.16464 2.80524 -3.50585
477 1 -7.03703 -0.710075 0.991328 -3.43182
478 1 -5.57641 1.1101 1.1243 -3.45846
479 1 -5.36533 -0.665822 2.85398 -3.44988
480 1 -7.266 1.14504 2.91672 -3.44438
481 1 -3.7062 -0.628781 0.950893 -3.52383
482 1 -1.744 1.20749 1.02392 -3.52145
483 1 -1.85381 -0.658445 2.73277 -3.52584
484 1 -3.70424 1.21059 2.85202 -3.49372
485 1 0.0498911 -0.612413 0.994649 -3.47201
486 1 1.72025 1.10239 0.923663 -3.50687
487 1 1.61557 -0.678982 2.84486 -3.42912
488 1 0.079355 1.14601 2.87156 -3.48354
489 1 3.49174 -0.663595 1.03646 -3.48852
490 1 5.01621 1.15897 0.999688 -3.45713
491 1 5.14895 -0.831098 2.99966 -3.48235
492 1 3.41617 0.890969 3.00554 -3.5045
493 1 6.78293 -0.716062 0.851868 -3.47006
494 1 8.56746 1.03878 1.21609 -3.44952
495 1 8.43026 -0.938782 2.74797 -3.48968
496 1 6.79249 0.971056 2.97736 -3.49451
497 1 10.3749 -0.627259 1.12744 -3.48576
498 1 12.2868 0.954325 1.2707 -3.49304
499 1 12.214 -0.92991 2.90135 -3.51873
500 1 10.4058 0.815646 3.05802 -3.48303
501 1 14.0883 -0.818418 1.08241 -3.48644
502 1 15.7576 1.04042 1.30677 -3.23559
503 1 16.2904 0.369265 3.7329 -3.0082
504 1 13.9302 0.976925 3.09369 -3.47385
505 1 17.3542 1.1019 -0.501669 -2.54898
506 1 -15.876 5.0832 0.982348 -2.93208
507 1 -15.7361 4.69384 4.99717 -3.09834
508 1 -14.2258 3.07225 0.944125 -3.46838
509 1 -12.358 4.86287 1.04414 -3.50308
510 1 -12.5148 3.02118 2.99656 -3.46906
511 1 -14.0618 4.8077 2.81481 -3.36974
512 1 -10.7452 3.05788 1.08432 -3.50767
513 1 -8.95595 4.86945 1.1086 -3.44492
514 1 -8.85232 3.06434 2.96634 -3.52436
515 1 -10.8034 4.781 3.20443 -3.51245
516 1 -7.04326 3.02085 1.25867 -3.47805
517 1 -5.25509 4.83655 1.06898 -3.53288
518 1 -5.34154 2.95698 3.0262 -3.497
519 1 -7.02813 4.90586 2.99707 -3.51568
520 1 -3.63983 2.94163 1.09365 -3.47918
521 1 -1.72871 4.76884 1.18891 -3.51543
522 1 -1.90186 2.92921 2.82741 -3.49161
523 1 -3.55096 4.73654 2.97762 -3.48293
524 1 0.0376534 2.95348 1.03582 -3.50946
525 1 1.78155 4.78754 1.03552 -3.46046
526 1 1.73312 2.84123 2.94643 -3.48781
527 1 0.0400849 4.65282 3.0199 -3.49163
528 1 3.51946 3.05557 1.16917 -3.50026
529 1 5.41358 4.71754 1.34409 -3.49136
530 1 5.12749 2.79276 3.1513 -3.52966
531 1 3.40887 4.62867 3.18614 -3.45796
532 1 6.96257 2.79909 1.28063 -3.46529
533 1 8.64851 4.56145 1.35018 -3.52454
534 1 8.61459 2.58423 3.04567 -3.4752
535 1 6.94357 4.48771 3.33509 -3.51358
536 1 10.4286 2.74383 1.17129 -3.54689
537 1 12.2033 4.49089 1.5099 -3.52136
538 1 12.149 2.61137 3.15238 -3.49146
539 1 10.4149 4.38949 3.28315 -3.48771
540 1 14.0204 2.79963 1.30727 -3.46878
541 1 15.7723 4.55493 1.48401 -2.97156
542 1 15.8409 2.7454 3.11081 -3.11134
543 1 14.0382 4.32257 3.24527 -3.41708
544 1 -15.7983 6.38539 3.11551 -2.78581
545 1 -14.2399 6.95028 1.12518 -3.31854
546 1 -12.3487 8.4036 1.37009 -3.4184
547 1 -12.5208 6.64943 3.18115 -3.44788
548 1 -14.1038 8.37162 3.23698 -3.08776
549 1 -10.4905 6.61939 1.19036 -3.45545
550 1 -8.83193 8.45053 1.43434 -3.48518
551 1 -8.8839 6.52689 3.17285 -3.50509
552 1 -10.6239 8.47235 3.22267 -3.52995
553 1 -7.07854 6.67258 1.32621 -3.50765
554 1 -5.12638 8.40133 1.29877 -3.47663
555 1 -5.04708 6.54393 3.0031 -3.46804
556 1 -6.98679 8.2103 3.36523 -3.52039
557 1 -3.29027 6.70838 1.28102 -3.50436
558 1 -1.5395 8.5785 1.52253 -3.47128
559 1 -1.70554 6.42683 3.18967 -3.51581
560 1 -3.29029 8.28839 3.30395 -3.49328
561 1 -0.123749 6.63768 1.29037 -3.52083
562 1 1.9111 8.40231 1.5102 -3.51525
563 1 1.64502 6.40897 3.17179 -3.50908
564 1 0.0736105 8.31171 3.41469 -3.47046
565 1 3.4726 6.53862 1.36574 -3.50227
566 1 5.44158 8.25919 1.44448 -3.4292
567 1 5.19874 6.21078 3.26759 -3.46919
568 1 3.57516 8.15322 3.41243 -3.50575
569 1 7.09589 6.40858 1.36044 -3.46275
570 1 8.82915 8.12877 1.44014 -3.50009
571 1 8.81025 6.17775 3.4122 -3.4836
572 1 6.9833 7.96727 3.47691 -3.52648
573 1 10.4469 6.28245 1.54664 -3.49361
574 1 12.342 8.05261 1.65261 -3.42519
575 1 12.1341 6.27358 3.32665 -3.4963
576 1 10.5058 8.00229 3.533 -3.50157
577 1 14.0058 6.2965 1.44693 -3.38494
578 1 15.7534 5.98783 3.37015 -2.71047
579 1 14.1209 7.99598 3.50478 -3.10907
580 1 -13.8793 10.2102 1.50071 -2.72236
581 1 -12.055 12.1221 1.67224 -2.82412
582 1 -12.3182 10.2653 3.38452 -3.28066
583 1 -10.5227 10.2514 1.50068 -3.47022
584 1 -8.76763 11.9563 1.76884 -3.43036
585 1 -8.69436 10.1892 3.47662 -3.47981
586 1 -10.5029 11.9419 3.57095 -3.33583
587 1 -6.96316 10.2749 1.52731 -3.52017
588 1 -5.20346 12.0606 1.76187 -3.49083
589 1 -5.13357 9.99173 3.46503 -3.51762
590 1 -6.93126 11.8266 3.69558 -3.48881
591 1 -3.53443 10.3011 1.45368 -3.51835
592 1 -1.58952 11.9983 1.70707 -3.54016
593 1 -1.5553 10.0078 3.47228 -3.43455
594 1 -3.34386 11.8183 3.55399 -3.51909
595 1 0.26807 10.1732 1.66869 -3.44009
596 1 1.89952 11.891 1.81288 -3.50545
597 1 1.90485 9.87778 3.55401 -3.48201
598 1 0.146314 11.7172 3.74196 -3.51835
599 1 3.88268 10.0869 1.71185 -3.46711
600 1 5.59688 11.8236 1.64284 -3.46394
601 1 5.36957 9.83049 3.45868 -3.44574
602 1 3.6645 11.767 3.73337 -3.46062
603 1 7.00351 9.91318 1.60059 -3.42056
604 1 8.77343 11.8063 1.79583 -3.50385
605 1 8.66895 9.84101 3.4365 -3.52322
606 1 7.07973 11.6773 3.63302 -3.49598
607 1 10.5543 9.98554 1.74098 -3.52455
608 1 12.3801 11.6768 1.5947 -2.85691
609 1 12.2408 9.79801 3.58514 -3.31466
610 1 10.5363 11.5686 3.66489 -3.33255
611 1 13.9747 9.68685 1.81095 -2.71967
612 1 -10.1342 13.9536 1.91734 -2.67744
613 1 -8.71989 13.7341 3.98827 -3.09416
614 1 -6.9732 13.6931 1.86234 -3.37016
615 1 -5.10369 15.2233 1.81676 -2.99312
616 1 -5.24964 13.5216 3.91503 -3.3805
617 1 -6.79994 15.2256 3.77995 -2.75062
618 1 -3.43749 13.69 1.93744 -3.34906
619 1 -1.79603 15.4735 2.03666 -3.06551
620 1 -1.61515 13.6271 3.7869 -3.48354
621 1 -3.56452 15.4154 3.7364 -3.00263
622 1 0.268014 13.8299 1.86096 -3.52398
623 1 2.12395 15.4303 2.19675 -3.09177
624 1 2.0028 13.4588 3.97997 -3.43768
625 1 0.257628 15.2161 3.98647 -3.21499
626 1 3.76036 13.6239 1.77537 -3.41455
627 1 5.17403 15.5037 2.14106 -2.98222
628 1 5.27799 13.4471 3.67203 -3.39006
629 1 3.80526 15.258 4.19252 -3.02068
630 1 7.06984 13.8105 1.74208 -3.29709
631 1 8.84397 13.4471 3.6925 -3.13035
632 1 6.99555 15.1367 3.94831 -2.76516
633 1 10.6287 13.3927 1.85735 -2.74284
634 1 0.0740997 16.8126 2.13067 -2.40255
635 1 -5.68809 -14.996 5.63707 -2.85109
636 1 -7.69519 -14.8312 7.40397 -2.60664
637 1 -1.43001 -14.0984 6.33234 -3.01326
638 1 -3.40104 -14.4315 8.27206 -2.95441
639 1 0.338067 -14.1202 4.41863 -3.12674
640 1 2.00519 -14.0474 6.33394 -2.97343
641 1 0.370732 -14.5099 8.21248 -3.0099
642 1 5.53966 -13.983 6.49593 -2.99327
643 1 4.00932 -14.0326 8.27402 -2.99861
644 1 7.34404 -13.8452 8.36801 -2.78963
645 1 -12.8771 -11.2911 5.94739 -2.86511
646 1 -11.122 -13.1795 5.80575 -2.67181
647 1 -9.40597 -11.4837 5.72051 -3.39359
648 1 -9.4933 -13.2068 7.62184 -3.08341
649 1 -11.0358 -11.3978 7.86544 -3.27452
650 1 -7.52278 -13.2188 5.65454 -3.33048
651 1 -5.50865 -11.7886 5.77287 -3.44175
652 1 -5.71124 -13.4709 7.63876 -3.32932
653 1 -7.51196 -11.8101 7.7285 -3.50411
654 1 -3.77335 -13.5419 5.89335 -3.33149
655 1 -1.92191 -11.6211 5.95135 -3.52678
656 1 -1.48014 -12.6662 8.26366 -3.46616
657 1 -3.87042 -11.7689 7.84617 -3.46073
658 1 0.42875 -12.4042 6.42976 -3.37984
659 1 2.0976 -12.3888 4.4178 -3.4351
660 1 1.9833 -12.6508 8.24199 -3.40493
661 1 0.225953 -10.7533 8.29503 -3.53221
662 1 3.82299 -12.2717 6.44206 -3.46326
663 1 5.58286 -10.5391 6.52466 -3.54101
664 1 5.58474 -12.2069 8.47084 -3.41827
665 1 3.70452 -10.6895 8.43719 -3.51768
666 1 7.38292 -12.342 6.50099 -3.37265
667 1 9.06292 -10.4269 6.58056 -3.4986
668 1 9.19211 -12.3182 8.42071 -3.11697
669 1 7.44315 -10.7384 8.50783 -3.41704
670 1 10.7993 -12.1429 6.53265 -2.74024
671 1 12.8146 -10.4962 6.57787 -2.85158
672 1 11.0791 -10.6681 8.37222 -3.28588
673 1 -14.5847 -9.44439 5.7974 -2.70842
674 1 -12.7912 -7.73765 5.94349 -3.48077
675 1 -12.8418 -9.62912 7.80606 -3.31106
676 1 -14.5825 -7.81374 7.8636 -3.14494
677 1 -11.217 -9.59295 6.01258 -3.44309
678 1 -9.19957 -7.92439 5.9633 -3.53408
679 1 -9.2725 -9.84597 7.88898 -3.46476
680 1 -10.9448 -7.87926 7.83752 -3.50808
681 1 -7.55336 -9.8728 5.99429 -3.5115
682 1 -5.64864 -7.9348 6.16965 -3.4801
683 1 -5.66589 -9.93398 7.91324 -3.51298
684 1 -7.51957 -8.14582 7.9455 -3.50504
685 1 -3.96636 -9.92512 6.08509 -3.49506
686 1 -2.08045 -8.1635 6.12444 -3.51169
687 1 -2.17029 -10.0417 7.95065 -3.46699
688 1 -3.81885 -8.291 7.9845 -3.49705
689 1 -0.357237 -9.80277 6.00675 -3.43344
690 1 1.51688 -9.73424 4.15564 -3.50087
691 1 2.09298 -10.5982 6.43702 -3.50771
692 1 -0.291082 -8.38382 8.09102 -3.44428
693 1 3.87247 -10.5162 4.60537 -3.48823
694 1 5.51438 -8.74653 4.64973 -3.49228
695 1 5.6584 -9.06071 8.5952 -3.52581
696 1 3.72889 -8.85377 6.64046 -3.50189
697 1 7.26646 -8.76719 6.75659 -3.42037
698 1 9.2349 -7.10548 6.68191 -3.48382
699 1 9.26971 -9.02341 8.66374 -3.51089
700 1 7.41738 -7.29984 8.55424 -3.4512
701 1 11.082 -8.72178 6.68219 -3.50701
702 1 12.8643 -6.77071 6.84632 -3.44211
703 1 12.8389 -8.84803 8.47254 -3.33409
704 1 11.0288 -7.06147 8.65368 -3.50138
705 1 14.4837 -8.58184 6.55164 -2.76685
706 1 14.7099 -7.33234 8.84785 -3.06635
707 1 -16.3739 -4.01699 6.30412 -2.9689
708 1 -16.228 -5.90384 8.14528 -2.72971
709 1 -14.701 -5.94378 6.12148 -3.34532
710 1 -12.8062 -4.29086 6.23658 -3.5098
711 1 -12.6714 -6.22585 8.01858 -3.4787
712 1 -14.3634 -4.40721 8.22635 -3.41799
713 1 -10.8406 -5.85967 6.11962 -3.49214
714 1 -9.0196 -4.44483 6.33327 -3.3423
715 1 -9.14928 -6.23377 8.09861 -3.50317
716 1 -10.9222 -4.37288 8.23245 -3.50656
717 1 -7.38109 -6.14258 6.10578 -3.50837
718 1 -5.54075 -4.38325 6.34435 -3.50606
719 1 -5.61701 -6.31666 8.11525 -3.50899
720 1 -7.35525 -4.55136 8.28017 -3.48059
721 1 -3.80261 -6.25871 6.24415 -3.52001
722 1 -2.00149 -6.2994 4.24358 -3.50504
723 1 -1.94842 -6.41151 8.09597 -3.49482
724 1 -3.84521 -4.70585 8.13247 -3.46299
725 1 -0.300445 -8.03783 4.24899 -3.49662
726 1 1.51126 -6.24035 4.33112 -3.48857
727 1 1.31219 -8.09739 6.10327 -3.46508
728 1 -0.392445 -6.27824 6.16498 -3.48711
729 1 3.25732 -8.05651 4.27478 -3.48529
730 1 4.83271 -6.19558 4.54164 -3.44764
731 1 5.4818 -7.14743 6.84046 -3.49369
732 1 3.05263 -6.51081 6.28211 -3.46795
733 1 7.23881 -6.85666 5.1277 -3.5021
734 1 9.13231 -5.13674 5.12818 -3.52908
735 1 9.12368 -5.56647 8.84121 -3.46877
736 1 7.38747 -5.35483 7.08952 -3.47567
737 1 10.9738 -5.39453 6.87224 -3.4328
738 1 12.7703 -3.57403 7.00905 -3.49689
739 1 13.0693 -5.14879 8.89197 -3.43391
740 1 10.9721 -3.85766 8.92646 -3.54173