ITEM: TIMESTEP
108000
ITEM: NUMBER OF ATOMS
3804
ITEM: BOX BOUNDS ss ss pp
-1.8599339166410548e+01 1.8400499211793438e+01
-1.7725434016097804e+01 1.7439992040422844e+01
-2.3425200000000004e+00 4.5722520000000003e+01
ITEM: ATOMS id type x y z c_peratom
1 1 -5.41864 -14.5809 -1.91123 -3.02443
2 1 -7.38574 -14.6322 -0.105708 -2.70347
3 1 -2.32356 -14.7223 -1.78667 -3.10252
4 1 -4.01472 -14.7646 0.126572 -3.02794
5 1 -0.455088 -16.1288 -2.19412 -2.64123
6 1 1.37074 -16.2216 44.4029 -2.86019
7 1 -0.584427 -15.1099 0.144605 -3.21065
8 1 5.62272 -15.3544 45.2414 -2.80964
9 1 3.82013 -15.5889 -1.06044 -2.88031
10 1 7.31948 -14.0816 0.80305 -2.72935
11 1 -12.7058 -11.006 -1.58291 -2.84946
12 1 -10.92 -12.6134 -1.68181 -2.74006
13 1 -9.13104 -10.9817 -1.6687 -3.44125
14 1 -9.18164 -12.8516 0.0359344 -3.12842
15 1 -11.0689 -11.0647 0.325405 -3.30937
16 1 -7.41959 -12.8834 -1.77706 -3.33526
17 1 -5.54852 -11.1922 -1.49638 -3.48393
18 1 -5.62224 -12.9847 0.101796 -3.42952
19 1 -7.43492 -11.0882 0.193274 -3.50298
20 1 -3.75288 -12.7951 -1.79274 -3.43717
21 1 -2.1437 -12.801 44.2776 -3.41498
22 1 -2.23865 -12.986 0.23717 -3.47403
23 1 -3.82926 -11.1698 0.359549 -3.49552
24 1 -0.532021 -14.4722 44.1473 -3.26772
25 1 1.39237 -13.0905 44.6344 -3.49613
26 1 1.46822 -14.7806 -1.68154 -3.25806
27 1 -0.459292 -13.2269 -1.59548 -3.53608
28 1 3.29724 -14.7335 44.6274 -3.31463
29 1 5.065 -13.0786 44.5976 -3.47646
30 1 5.50223 -13.6786 -1.01874 -3.20069
31 1 3.26055 -13.1217 -1.54138 -3.46141
32 1 7.40355 -13.8234 45.1865 -3.09381
33 1 9.28106 -12.0874 45.2426 -3.24748
34 1 9.22594 -12.457 1.05287 -3.10798
35 1 7.43777 -12.2096 -0.84835 -3.38245
36 1 10.9403 -12.2333 -0.900959 -2.71485
37 1 12.7832 -10.474 -0.826092 -2.85502
38 1 11.1014 -10.6288 1.08246 -3.28947
39 1 -14.4801 -9.14915 -1.45546 -2.71487
40 1 -12.5564 -7.47995 -1.56338 -3.48465
41 1 -12.6495 -9.28849 0.277127 -3.32359
42 1 -14.3983 -7.55348 0.344013 -3.06555
43 1 -10.8273 -9.32629 -1.42789 -3.46973
44 1 -9.05263 -7.41033 -1.43206 -3.4947
45 1 -9.1111 -9.27037 0.248982 -3.48764
46 1 -10.7644 -7.47133 0.417351 -3.53125
47 1 -7.29074 -9.21108 -1.5157 -3.54514
48 1 -5.55252 -9.1241 44.6571 -3.52002
49 1 -5.5386 -9.37967 0.455273 -3.52629
50 1 -7.36219 -7.46375 0.45846 -3.49921
51 1 -3.85807 -11.0571 44.3708 -3.47288
52 1 -2.04256 -9.31735 44.7411 -3.54088
53 1 -1.95586 -11.201 -1.58578 -3.47951
54 1 -3.80129 -9.40477 -1.47124 -3.52655
55 1 -0.244671 -11.2917 44.7717 -3.51822
56 1 1.47724 -9.39868 44.7767 -3.47907
57 1 1.43439 -11.3585 -1.29462 -3.49561
58 1 -0.142881 -9.43894 -1.47794 -3.51573
59 1 3.19502 -11.3023 44.792 -3.54738
60 1 5.06553 -9.58407 44.9789 -3.48707
61 1 5.07682 -11.4451 -1.38283 -3.45426
62 1 3.28035 -9.54956 -1.37535 -3.50874
63 1 6.84058 -11.3902 44.7949 -3.51214
64 1 8.71049 -9.66349 44.9141 -3.48705
65 1 9.34412 -10.4201 -0.703647 -3.48054
66 1 6.85464 -9.67178 -1.32461 -3.51176
67 1 10.9779 -10.2811 45.4597 -3.33049
68 1 12.8717 -8.53412 45.5027 -3.35108
69 1 12.835 -8.88677 1.29447 -3.30492
70 1 11.1484 -8.67481 -0.613415 -3.48558
71 1 14.5878 -8.57915 -0.600557 -2.71274
72 1 14.524 -6.91167 1.37336 -3.15199
73 1 -16.0826 -3.94227 -1.29493 -2.99123
74 1 -15.9352 -5.64882 0.574483 -2.75755
75 1 -14.512 -5.80595 -1.57734 -3.33849
76 1 -12.6671 -3.81682 -1.41175 -3.51108
77 1 -12.7295 -5.73369 0.276519 -3.53468
78 1 -14.3722 -3.80181 0.455938 -3.40643
79 1 -10.8116 -5.64933 -1.45429 -3.51551
80 1 -9.07524 -5.62119 44.7706 -3.51992
81 1 -9.03827 -5.67124 0.53269 -3.52838
82 1 -10.9042 -3.9172 0.517416 -3.51775
83 1 -7.34271 -7.38469 44.6354 -3.48483
84 1 -5.53155 -5.79517 44.8234 -3.49976
85 1 -5.42597 -7.54977 -1.36754 -3.4801
86 1 -7.28212 -5.77468 -1.45098 -3.52148
87 1 -3.76364 -7.4306 44.7883 -3.48538
88 1 -1.9089 -5.67866 44.8607 -3.49317
89 1 -2.01316 -7.52538 -1.41732 -3.51688
90 1 -3.72191 -5.79679 -1.37826 -3.4788
91 1 -0.252903 -7.49276 44.8507 -3.50027
92 1 1.68942 -5.92967 45.124 -3.48747
93 1 1.57296 -7.67607 -1.31058 -3.46802
94 1 -0.0928264 -5.99264 -1.09416 -3.45796
95 1 3.46369 -7.73599 44.9001 -3.49997
96 1 5.2142 -5.87306 45.1434 -3.53518
97 1 5.1107 -7.86677 -1.21236 -3.50351
98 1 3.41674 -5.87688 -1.14576 -3.52822
99 1 6.96696 -7.82147 45.0876 -3.50036
100 1 8.64718 -6.16209 45.186 -3.49451
101 1 8.64885 -7.98639 -1.07455 -3.50588
102 1 6.87396 -6.13992 -0.996069 -3.49545
103 1 10.3949 -7.9274 45.1195 -3.49869
104 1 12.1337 -6.09354 45.1138 -3.49636
105 1 12.7657 -6.86672 -0.470676 -3.46807
106 1 10.4943 -6.18425 -1.04801 -3.5092
107 1 14.5794 -6.72649 45.8112 -3.22061
108 1 16.4416 -4.98799 -2.1854 -2.82403
109 1 16.2917 -5.18736 1.4423 -2.65177
110 1 14.6338 -5.1529 -0.368625 -3.3421
111 1 -16.1754 -0.130472 -1.51244 -3.01431
112 1 -16.2544 -2.07347 0.355584 -2.99746
113 1 -14.3843 -1.85484 -1.32702 -3.46318
114 1 -12.7509 -2.04382 44.7346 -3.50969
115 1 -12.6489 -2.01359 0.472211 -3.52092
116 1 -14.5201 -0.348896 0.483856 -3.42323
117 1 -10.8751 -3.57786 44.9036 -3.4718
118 1 -8.95466 -1.94651 44.9628 -3.50986
119 1 -9.00161 -3.8566 -1.35562 -3.51634
120 1 -10.9277 -2.05563 -1.33309 -3.48553
121 1 -7.2254 -3.83425 44.8346 -3.49015
122 1 -5.50579 -2.07049 44.9151 -3.50558
123 1 -5.57148 -3.92185 -1.36399 -3.52884
124 1 -7.33971 -2.1037 -1.27202 -3.46571
125 1 -3.64614 -3.89242 45.0939 -3.49908
126 1 -1.89513 -2.08938 45.0776 -3.51825
127 1 -1.9931 -4.00258 -1.17161 -3.50956
128 1 -3.73654 -2.09546 -1.19601 -3.53045
129 1 -0.0206175 -3.954 45.1338 -3.53543
130 1 1.78605 -2.15017 45.2587 -3.4641
131 1 1.66765 -4.07705 -1.06527 -3.48524
132 1 -0.0148869 -2.38991 -0.99537 -3.48127
133 1 3.44605 -4.06048 45.1325 -3.51691
134 1 5.38214 -2.31954 45.2111 -3.5363
135 1 5.44033 -4.05833 -0.968691 -3.4877
136 1 3.66095 -2.40489 -1.03701 -3.51008
137 1 7.12431 -4.20176 45.2361 -3.48116
138 1 8.82335 -2.32045 45.4227 -3.49747
139 1 8.70669 -4.26011 -0.987566 -3.52725
140 1 7.14797 -2.26013 -0.985753 -3.46786
141 1 10.596 -4.28157 45.2396 -3.50374
142 1 12.4049 -2.25393 45.2861 -3.49539
143 1 12.3369 -4.37797 -0.940588 -3.47731
144 1 10.7036 -2.47835 -0.807329 -3.53054
145 1 13.9567 -4.36969 45.3355 -3.49269
146 1 15.6218 -2.61121 45.5986 -3.20355
147 1 16.5452 -3.14033 -0.278783 -3.03156
148 1 14.1101 -2.72377 -0.55148 -3.48743
149 1 -18.4495 2.01181 40.025 -2.677
150 1 -16.3964 1.72929 44.6598 -3.12498
151 1 -16.2843 1.23381 0.474776 -3.00647
152 1 -14.5679 -0.26262 44.698 -3.43269
153 1 -12.6041 1.59169 44.916 -3.4814
154 1 -12.5159 -0.170899 -1.30462 -3.4671
155 1 -14.4203 1.50151 -1.43073 -3.43903
156 1 -10.866 -0.163058 45.0472 -3.5151
157 1 -8.95953 1.56084 44.9257 -3.47171
158 1 -8.98421 -0.302171 -1.27455 -3.51544
159 1 -10.7282 1.56171 -0.957834 -3.4647
160 1 -7.17552 -0.141024 45.1069 -3.4726
161 1 -5.40231 1.5426 45.3348 -3.48471
162 1 -5.57522 -0.362417 -1.07801 -3.50169
163 1 -7.23856 1.48264 -1.13111 -3.47664
164 1 -3.61071 -0.274486 45.0333 -3.47524
165 1 -1.66389 1.17144 45.3679 -3.49514
166 1 -1.79401 -0.55073 -0.926358 -3.49656
167 1 -3.55744 1.14537 -0.943567 -3.52058
168 1 0.0201493 -0.530147 45.2794 -3.46935
169 1 1.76708 1.439 45.3895 -3.4768
170 1 1.76705 -0.619812 -0.916692 -3.50855
171 1 0.0526938 1.17662 -0.773718 -3.50477
172 1 3.60126 -0.420411 45.388 -3.53213
173 1 5.42008 1.37803 45.4444 -3.50459
174 1 5.41091 -0.498061 -0.926985 -3.49552
175 1 3.55376 1.32925 -0.707395 -3.51046
176 1 7.08205 -0.424572 45.3265 -3.49183
177 1 8.96108 1.32828 45.6271 -3.50887
178 1 8.96602 -0.507848 -0.820555 -3.43353
179 1 7.09329 1.26041 -0.633897 -3.53237
180 1 10.6068 -0.522057 45.5692 -3.47501
181 1 12.5047 1.20446 45.4398 -3.51178
182 1 12.5018 -0.716122 -0.636018 -3.53449
183 1 10.6796 1.1157 -0.602118 -3.49089
184 1 14.1959 -0.720449 45.5851 -3.46445
185 1 16.2252 0.968134 -2.51268 -3.16515
186 1 15.7921 -0.810838 -0.566239 -3.19156
187 1 14.2482 1.03227 -0.589768 -3.46479
188 1 17.4837 -1.16505 -2.04122 -2.59682
189 1 -16.4548 4.81486 45.0429 -2.91679
190 1 -16.1553 3.09679 -1.14798 -3.01247
191 1 -14.4982 3.32398 44.8482 -3.44258
192 1 -12.7129 4.98586 45.0492 -3.45281
193 1 -12.6337 3.14124 -1.11439 -3.49082
194 1 -14.3935 4.86339 -1.03684 -3.43602
195 1 -10.8288 3.25213 45.1761 -3.52085
196 1 -8.91271 5.20665 45.3781 -3.46247
197 1 -8.98262 3.27411 -0.948058 -3.50323
198 1 -10.8473 4.88835 -0.864714 -3.50991
199 1 -7.26139 3.38343 45.2483 -3.50122
200 1 -5.22224 4.9736 45.3917 -3.52376
201 1 -5.40391 3.12672 -0.782271 -3.49824
202 1 -7.10731 4.85037 -0.70805 -3.48804
203 1 -3.45941 3.03492 45.4343 -3.49398
204 1 -1.88233 4.98053 45.4798 -3.52014
205 1 -1.71811 3.02805 -0.767585 -3.51743
206 1 -3.65299 4.84609 -0.698737 -3.49497
207 1 -0.00696709 3.08755 45.4827 -3.51751
208 1 1.91607 4.91868 45.5924 -3.45087
209 1 1.73471 2.90399 -0.660861 -3.48707
210 1 0.159344 4.86443 -0.608408 -3.52739
211 1 3.59665 3.14066 45.4828 -3.49101
212 1 5.20938 5.029 45.7311 -3.43111
213 1 5.14213 3.1767 -0.63071 -3.43046
214 1 3.45944 4.72047 -0.560739 -3.44801
215 1 7.16972 3.10718 -2.53449 -3.49349
216 1 9.01715 4.83084 -2.43759 -3.5164
217 1 8.95389 3.09589 -0.524056 -3.51538
218 1 7.1171 4.68903 -0.661633 -3.50114
219 1 10.8213 3.04026 45.6674 -3.51908
220 1 12.838 4.74834 -2.29866 -3.51949
221 1 12.6074 2.72689 -0.498323 -3.44014
222 1 10.8174 4.64547 -0.601564 -3.47743
223 1 14.4074 2.80191 45.8164 -3.44826
224 1 16.0271 4.76173 45.7938 -2.9723
225 1 16.1595 2.91995 -0.563335 -3.13236
226 1 14.2043 4.43747 -0.310082 -3.42586
227 1 -15.9799 6.90923 -1.08876 -2.8249
228 1 -14.3231 6.64524 45.3434 -3.35835
229 1 -12.5436 8.42583 45.4285 -3.44394
230 1 -12.5448 6.60489 -0.821403 -3.49069
231 1 -14.2493 8.65854 -0.943291 -3.1176
232 1 -10.7348 6.80204 45.4295 -3.48077
233 1 -8.88856 8.44202 45.6065 -3.4925
234 1 -8.8543 6.55533 -0.64055 -3.4843
235 1 -10.7384 8.2834 -0.704578 -3.48566
236 1 -7.07854 6.70163 45.4257 -3.48207
237 1 -5.23971 8.58917 -2.46813 -3.4772
238 1 -5.37672 6.59334 -0.741463 -3.46298
239 1 -7.07022 8.20443 -0.762149 -3.43589
240 1 -3.47047 6.8847 45.528 -3.46176
241 1 -1.72015 8.4291 -2.27816 -3.50119
242 1 -1.72129 6.50308 -0.512978 -3.51775
243 1 -3.63526 8.27772 -0.454745 -3.50382
244 1 0.017855 6.67593 -2.5393 -3.4993
245 1 1.80116 8.55958 -2.24413 -3.4993
246 1 1.89338 6.68047 -0.368677 -3.45638
247 1 0.124548 8.37738 -0.397653 -3.49956
248 1 3.40552 6.69093 -2.34831 -3.47044
249 1 5.26487 8.35888 -2.18873 -3.52185
250 1 5.27457 6.40608 -0.489366 -3.48144
251 1 3.55155 8.37361 -0.264502 -3.48107
252 1 7.03983 6.63135 -2.38606 -3.46099
253 1 8.91 8.20081 -2.27357 -3.47405
254 1 9.09672 6.38811 -0.479994 -3.49967
255 1 7.32746 8.21333 -0.210079 -3.48511
256 1 10.8857 6.58829 -2.19911 -3.4925
257 1 12.615 8.18698 -1.99804 -3.43065
258 1 12.6665 6.48296 -0.221772 -3.53268
259 1 10.8544 8.15415 -0.151594 -3.48984
260 1 14.481 6.52087 -2.07708 -3.30994
261 1 16.1257 6.09303 -0.287215 -2.74853
262 1 14.5634 8.05056 -0.147545 -3.06165
263 1 -14.8574 9.07684 44.904 -2.88021
264 1 -12.9141 10.8142 45.2179 -2.88826
265 1 -12.2866 10.1476 -0.688344 -3.17111
266 1 -10.6044 10.0998 -2.48117 -3.45622
267 1 -8.72624 12.0534 -2.2464 -3.39981
268 1 -8.65604 10.0992 -0.609698 -3.51506
269 1 -10.5724 11.787 -0.428093 -3.24252
270 1 -6.99307 10.2514 -2.42447 -3.49443
271 1 -5.25988 12.1595 -2.22364 -3.51222
272 1 -5.34025 10.0718 -0.398744 -3.5369
273 1 -7.0463 12.0598 -0.37382 -3.48331
274 1 -3.49697 10.2721 -2.2483 -3.53786
275 1 -1.63871 12.0204 -2.09959 -3.45811
276 1 -1.79994 10.1182 -0.317343 -3.54885
277 1 -3.58432 11.8302 -0.144113 -3.48302
278 1 0.0394085 10.2976 -2.21255 -3.50284
279 1 1.87333 12.0476 -1.94127 -3.52108
280 1 1.77651 10.0688 -0.271783 -3.47076
281 1 0.0911502 11.8495 -0.104699 -3.51216
282 1 3.64903 10.1998 -2.05225 -3.52442
283 1 5.58791 11.889 -1.85454 -3.51234
284 1 5.59184 10.0258 -0.178537 -3.50944
285 1 3.57302 11.7585 0.0188666 -3.52322
286 1 7.27722 10.0293 -1.98833 -3.5248
287 1 9.18272 11.6931 -1.75724 -3.42934
288 1 9.06687 9.8355 -0.082996 -3.48245
289 1 7.37392 11.7912 -0.0913252 -3.46055
290 1 10.8885 10.0724 -1.91149 -3.47994
291 1 12.7038 11.563 -1.60394 -2.85922
292 1 12.8446 9.63282 0.0645921 -3.29621
293 1 10.94 11.6401 0.0879974 -3.32893
294 1 14.3852 9.83424 -1.8956 -2.7359
295 1 -11.0695 12.5473 45.1559 -2.7315
296 1 -8.72279 13.8842 -0.256208 -2.96136
297 1 -6.93704 13.9499 -2.1235 -3.15467
298 1 -5.11679 15.5401 -1.93322 -2.84837
299 1 -5.28522 13.6214 -0.0364611 -3.43724
300 1 -6.84764 15.5053 -0.0683134 -2.67236
301 1 -3.37114 13.6175 -1.90294 -3.44003
302 1 -1.66036 15.4067 -1.61272 -3.15544
303 1 -1.76185 13.4558 0.0408243 -3.47252
304 1 -3.383 15.4091 0.209038 -3.02231
305 1 0.151211 13.7722 -1.78479 -3.50385
306 1 2.03006 15.4807 -1.65543 -3.0932
307 1 1.93674 13.5449 -7.1101e-05 -3.46082
308 1 0.074242 15.3818 0.290697 -3.18474
309 1 3.8208 13.6829 -1.74999 -3.44944
310 1 5.55386 15.3248 -1.37186 -2.95974
311 1 5.48991 13.3043 0.133399 -3.44894
312 1 3.74199 15.2039 0.339531 -3.01361
313 1 7.36603 13.6637 -1.68726 -3.28385
314 1 9.21703 13.3496 0.0647315 -3.11713
315 1 7.33688 14.99 0.274399 -2.75827
316 1 11.0543 13.3613 -1.73693 -2.73758
317 1 0.238807 16.9629 -1.59171 -2.39714
318 1 -5.79405 -14.8787 1.97185 -2.94733
319 1 -7.62382 -14.7996 3.8892 -2.66866
320 1 -2.22343 -14.9732 2.06374 -2.98996
321 1 -3.88996 -15.1129 4.04158 -2.80831
322 1 1.94396 -15.6734 0.582393 -2.95169
323 1 3.6323 -15.5019 2.50093 -2.58406
324 1 0.177646 -15.604 2.61939 -2.68859
325 1 5.65954 -14.1704 2.66886 -3.09659
326 1 3.873 -14.0881 4.54536 -3.1418
327 1 7.23321 -14.1546 4.59456 -2.7414
328 1 -12.7321 -11.0237 2.17661 -2.87912
329 1 -10.9888 -12.9095 2.10444 -2.68915
330 1 -9.19288 -11.1494 2.15643 -3.50025
331 1 -9.08609 -12.9825 3.8881 -3.10491
332 1 -10.9065 -11.1789 3.89343 -3.36275
333 1 -7.42651 -12.9342 1.8817 -3.38344
334 1 -5.65057 -11.2519 2.21175 -3.48634
335 1 -5.8269 -13.2038 3.98595 -3.48842
336 1 -7.39061 -11.2948 4.0477 -3.49139
337 1 -3.91151 -13.229 2.21508 -3.43088
338 1 -2.15188 -11.5182 2.23487 -3.48719
339 1 -2.31015 -13.369 3.95085 -3.32777
340 1 -4.01573 -11.3994 3.97567 -3.48054
341 1 -0.529002 -13.2848 2.08188 -3.44763
342 1 1.36573 -13.2887 0.305369 -3.50745
343 1 1.90351 -13.8609 2.65093 -3.33373
344 1 -0.328071 -11.6166 4.04818 -3.50815
345 1 3.80185 -13.9438 0.834033 -3.33449
346 1 5.72422 -12.2264 1.03031 -3.44543
347 1 5.6159 -12.4787 4.73982 -3.40007
348 1 3.91577 -12.2762 2.83701 -3.54507
349 1 7.42984 -12.3941 2.82081 -3.37165
350 1 9.20804 -10.7016 2.99372 -3.44776
351 1 9.38219 -12.714 4.63591 -3.07015
352 1 7.5722 -10.7896 4.86909 -3.50707
353 1 10.9971 -12.366 2.73425 -2.69096
354 1 13.0318 -10.7106 3.21117 -2.74388
355 1 11.0948 -10.7825 4.93751 -3.34239
356 1 -14.5254 -9.14509 2.06605 -2.7051
357 1 -12.6932 -7.39877 2.24931 -3.4761
358 1 -12.736 -9.3273 3.95854 -3.34579
359 1 -14.5313 -7.36596 3.93964 -3.13275
360 1 -11.0425 -9.34644 2.14845 -3.46844
361 1 -9.10218 -7.66455 2.34587 -3.5124
362 1 -9.10258 -9.42393 4.15448 -3.47949
363 1 -10.811 -7.73328 4.02785 -3.46367
364 1 -7.31355 -9.47313 2.16853 -3.50371
365 1 -5.65384 -7.72529 2.3453 -3.47559
366 1 -5.67492 -9.65824 4.18046 -3.44601
367 1 -7.28505 -7.80788 4.07163 -3.49276
368 1 -3.9037 -9.51987 2.38969 -3.50766
369 1 -2.01725 -9.50702 0.352289 -3.51525
370 1 -2.01126 -9.79702 4.17447 -3.50458
371 1 -3.93982 -7.82548 4.31287 -3.49949
372 1 -0.33944 -11.4377 0.328373 -3.49488
373 1 1.62765 -9.65528 0.432771 -3.49562
374 1 1.52386 -11.4956 2.20239 -3.51342
375 1 -0.284222 -9.81396 2.32264 -3.50952
376 1 3.41551 -11.4663 0.439858 -3.52203
377 1 5.02554 -9.63872 0.634122 -3.49703
378 1 5.72752 -10.4675 2.94632 -3.52652
379 1 3.33037 -9.78 2.5348 -3.5063
380 1 7.39718 -10.4883 1.06455 -3.51178
381 1 9.2784 -8.73612 1.28442 -3.5451
382 1 9.29382 -8.94559 4.68974 -3.43546
383 1 7.53819 -8.7857 3.19628 -3.4423
384 1 11.2169 -8.82756 3.09571 -3.51488
385 1 12.9175 -6.92312 3.25222 -3.43627
386 1 12.8682 -8.68714 5.11287 -3.24981
387 1 11.153 -7.11196 5.04967 -3.44513
388 1 14.4507 -8.76922 3.12104 -2.75699
389 1 14.67 -7.2279 5.14546 -3.08427
390 1 -16.178 -3.63589 2.13431 -3.01518
391 1 -16.326 -5.38424 3.9091 -2.71582
392 1 -14.3887 -5.41064 2.23672 -3.31338
393 1 -12.4536 -3.87751 2.41734 -3.41892
394 1 -12.5831 -5.76998 4.18623 -3.49396
395 1 -14.4131 -3.95348 4.41281 -3.4507
396 1 -10.8921 -5.82117 2.36122 -3.49865
397 1 -8.97253 -3.90883 2.5148 -3.52323
398 1 -9.06405 -5.92514 4.15583 -3.55061
399 1 -10.8506 -4.08687 4.29391 -3.48304
400 1 -7.23679 -5.85238 2.36364 -3.4874
401 1 -5.51279 -5.96126 0.430499 -3.48075
402 1 -5.56849 -5.9739 4.30077 -3.52974
403 1 -7.35222 -4.05185 4.4665 -3.49404
404 1 -3.69036 -7.64753 0.565039 -3.5286
405 1 -1.82088 -5.92921 0.64497 -3.50527
406 1 -1.99515 -7.96494 2.53439 -3.49689
407 1 -3.81851 -5.99988 2.45549 -3.53019
408 1 -0.1697 -7.86422 0.542345 -3.50567
409 1 1.58549 -5.87376 0.734578 -3.52588
410 1 1.63005 -7.91025 2.43268 -3.51638
411 1 -0.276072 -6.04886 2.61797 -3.50916
412 1 3.40419 -7.85701 0.687131 -3.49585
413 1 5.19191 -6.06533 0.743673 -3.50476
414 1 5.17444 -8.05672 2.69921 -3.50133
415 1 3.32627 -6.0841 2.5679 -3.51108
416 1 6.90533 -8.00753 0.6786 -3.50614
417 1 8.7438 -6.15707 0.762245 -3.5177
418 1 9.52549 -6.9526 3.28025 -3.46491
419 1 6.9784 -6.21272 2.6719 -3.52378
420 1 11.1905 -6.83166 1.48926 -3.49792
421 1 12.9205 -5.0509 1.38252 -3.51269
422 1 13.0955 -5.33636 5.12797 -3.52464
423 1 11.1715 -5.12762 3.29378 -3.49789
424 1 14.7724 -5.25312 3.27507 -3.31313
425 1 16.4753 -3.39217 3.831 -2.90676
426 1 16.304 -5.28346 5.43535 -2.71482
427 1 14.6825 -3.53737 5.51052 -3.37922
428 1 -16.1971 -0.825545 2.52191 -3.15251
429 1 -16.3647 -2.46454 4.48987 -3.04249
430 1 -14.2596 -2.24315 2.40305 -3.43647
431 1 -12.5741 -0.362574 2.46112 -3.529
432 1 -12.5486 -2.28503 4.25038 -3.42402
433 1 -14.4451 -0.80681 4.41418 -3.46126
434 1 -10.834 -2.16909 2.46883 -3.42328
435 1 -9.16154 -2.25016 0.476831 -3.50182
436 1 -9.12851 -2.3424 4.41898 -3.51089
437 1 -10.9202 -0.610582 4.39919 -3.44313
438 1 -7.19325 -3.99127 0.596822 -3.49315
439 1 -5.41914 -2.30871 0.690094 -3.49926
440 1 -5.61304 -4.10937 2.43879 -3.4866
441 1 -7.36044 -2.16218 2.55949 -3.46088
442 1 -3.66299 -4.17925 0.718682 -3.51211
443 1 -2.00337 -2.4169 0.763734 -3.48302
444 1 -1.97485 -4.30704 2.74426 -3.45403
445 1 -3.6046 -2.46502 2.7407 -3.48003
446 1 -0.216489 -4.0735 0.90117 -3.49265
447 1 1.70646 -2.40657 0.884231 -3.46123
448 1 1.60206 -4.18121 2.72811 -3.50797
449 1 -0.228347 -2.53125 2.76924 -3.4923
450 1 3.41555 -4.17083 0.786622 -3.51496
451 1 5.42284 -2.35985 0.854996 -3.50952
452 1 5.16071 -4.25939 2.69129 -3.51987
453 1 3.47067 -2.42745 2.74823 -3.4887
454 1 7.01503 -4.23639 0.916883 -3.4808
455 1 8.78237 -2.59172 1.01384 -3.52774
456 1 8.77741 -4.44459 2.81373 -3.52243
457 1 7.01166 -2.51412 2.87264 -3.51547
458 1 10.5207 -4.46561 0.89615 -3.52789
459 1 12.3505 -2.65661 1.20297 -3.46349
460 1 13.137 -3.42128 3.42035 -3.49522
461 1 10.6401 -2.74133 2.84937 -3.50729
462 1 14.8595 -3.33731 1.73226 -3.40153
463 1 16.7102 -1.36933 1.58942 -2.95512
464 1 16.5131 -1.67559 5.70798 -2.98268
465 1 14.9533 -1.57357 3.69293 -3.42123
466 1 -17.3971 1.3466 2.58174 -2.61613
467 1 -16.0567 3.28158 2.75141 -3.14434
468 1 -16.3302 0.681155 4.61863 -3.101
469 1 -14.5648 1.1165 2.57682 -3.52459
470 1 -12.7225 1.36212 0.586429 -3.46772
471 1 -12.7126 1.12874 4.63848 -3.53129
472 1 -14.7069 2.67226 4.83763 -3.52305
473 1 -10.7671 -0.381212 0.682717 -3.52332
474 1 -8.93553 1.34903 0.750652 -3.47369
475 1 -9.14825 -0.600584 2.5834 -3.42064
476 1 -10.7791 1.21098 2.70355 -3.47876
477 1 -7.26509 -0.371758 0.876252 -3.47058
478 1 -5.43317 1.18834 1.02405 -3.49891
479 1 -5.30245 -0.559281 2.81937 -3.51354
480 1 -7.19529 1.16888 2.77896 -3.5004
481 1 -3.63763 -0.566028 0.923705 -3.49502
482 1 -1.71759 1.2009 1.19762 -3.48919
483 1 -2.00808 -0.744052 2.8624 -3.48839
484 1 -3.61091 1.2461 2.794 -3.52026
485 1 0.0231477 -0.748944 1.09809 -3.50667
486 1 1.67976 1.10438 1.15571 -3.51938
487 1 1.76556 -0.748128 2.89499 -3.48088
488 1 -0.0696164 0.989825 3.0254 -3.50817
489 1 3.41741 -0.671785 0.997771 -3.50863
490 1 5.22898 1.11222 1.14802 -3.50139
491 1 5.32343 -0.726135 2.96191 -3.51662
492 1 3.43544 0.977237 3.13072 -3.50259
493 1 7.11138 -0.587942 1.03845 -3.51073
494 1 8.92818 1.08865 1.28993 -3.52076
495 1 8.89173 -0.916107 2.92223 -3.48416
496 1 7.17439 0.91342 3.12694 -3.50749
497 1 10.6272 -0.893762 1.05137 -3.5037
498 1 12.475 0.937571 1.28402 -3.47896
499 1 12.371 -0.899237 3.02185 -3.49674
500 1 10.6316 0.830838 3.2164 -3.49971
501 1 14.1658 -0.706256 1.29181 -3.48592
502 1 16.0634 1.11266 1.34656 -3.22719
503 1 16.7185 0.170258 3.74616 -2.93888
504 1 14.2807 0.881628 3.39584 -3.5231
505 1 17.483 0.819418 -0.560387 -2.5897
506 1 -16.0132 4.93823 0.805764 -2.95702
507 1 -15.9949 4.83452 5.02198 -3.03649
508 1 -14.5649 2.91416 0.89816 -3.40761
509 1 -12.8177 4.82946 0.989373 -3.56595
510 1 -12.8046 2.77785 2.64346 -3.47723
511 1 -14.1935 4.69063 3.11401 -3.25458
512 1 -10.9694 3.12354 0.840481 -3.47255
513 1 -9.06989 4.71094 1.06549 -3.49485
514 1 -9.03198 2.90815 2.8598 -3.48378
515 1 -10.8834 4.58387 2.82276 -3.53928
516 1 -7.24136 2.97326 1.03933 -3.50957
517 1 -5.36373 4.73567 1.18525 -3.51392
518 1 -5.52568 2.93138 3.00459 -3.43851
519 1 -7.30675 4.67224 3.10023 -3.48772
520 1 -3.46625 2.91933 0.894973 -3.48558
521 1 -1.66559 4.67908 1.15414 -3.47454
522 1 -1.71188 2.96094 3.05813 -3.52532
523 1 -3.7757 4.45985 3.10806 -3.46754
524 1 -0.0143194 2.92382 1.12287 -3.471
525 1 1.78187 4.67787 1.33396 -3.53726
526 1 1.77624 2.76671 3.04851 -3.49861
527 1 0.181694 4.66221 3.26854 -3.46597
528 1 3.55199 2.88778 1.26153 -3.50366
529 1 5.31728 4.67688 1.35365 -3.47337
530 1 5.33036 2.69321 3.02418 -3.48564
531 1 3.6363 4.4017 3.386 -3.5243
532 1 6.9598 2.93201 1.2347 -3.49802
533 1 8.8582 4.70722 1.49289 -3.52167
534 1 8.91292 2.73316 3.19767 -3.48979
535 1 7.02819 4.47893 3.28945 -3.50316
536 1 10.6994 2.90781 1.44923 -3.47308
537 1 12.4391 4.49841 1.37003 -3.44078
538 1 12.4847 2.76257 3.26213 -3.49637
539 1 10.5811 4.48812 3.33719 -3.46724
540 1 14.2497 2.68648 1.54321 -3.46471
541 1 16.1427 4.35495 1.57681 -2.99854
542 1 16.3178 2.67875 3.53969 -3.04058
543 1 14.5265 4.23117 3.50233 -3.38382
544 1 -15.9462 6.13675 2.9134 -2.75679
545 1 -14.4471 6.83905 0.956339 -3.26104
546 1 -12.493 8.18117 0.992415 -3.3692
547 1 -12.6121 6.43181 2.93184 -3.40497
548 1 -14.1037 8.19293 2.90192 -3.06892
549 1 -10.6749 6.53201 1.09959 -3.50526
550 1 -8.87553 8.21376 1.21641 -3.51904
551 1 -8.97229 6.48094 3.03045 -3.5207
552 1 -10.7899 8.15758 3.0396 -3.5182
553 1 -7.24573 6.37272 1.21578 -3.48623
554 1 -5.39835 8.24654 1.29631 -3.53142
555 1 -5.47601 6.36958 3.1474 -3.50425
556 1 -7.12651 8.14752 3.10152 -3.48911
557 1 -3.481 6.42377 1.2402 -3.48627
558 1 -1.82486 8.25832 1.49395 -3.52028
559 1 -1.85249 6.24617 3.14887 -3.54251
560 1 -3.57794 8.03697 3.38553 -3.49197
561 1 0.0707933 6.58108 1.45875 -3.49043
562 1 1.81281 8.1578 1.58109 -3.47555
563 1 1.89831 6.31459 3.40713 -3.46703
564 1 -0.0156465 8.02594 3.43046 -3.51824
565 1 3.64967 6.47273 1.40328 -3.5127
566 1 5.40171 8.20238 1.42896 -3.47932
567 1 5.39234 6.28743 3.48659 -3.50821
568 1 3.60122 8.02483 3.55555 -3.49406
569 1 7.03607 6.35586 1.56827 -3.47284
570 1 9.01764 8.01678 1.65997 -3.51836
571 1 8.9599 6.38675 3.47187 -3.49485
572 1 7.10969 8.0747 3.49794 -3.48813
573 1 10.8144 6.29699 1.61783 -3.51087
574 1 12.7577 8.02268 1.86303 -3.42798
575 1 12.5884 6.07211 3.43123 -3.54736
576 1 10.836 7.93736 3.55505 -3.52514
577 1 14.4396 6.06757 1.70681 -3.39486
578 1 16.1507 6.06163 3.66141 -2.66926
579 1 14.438 7.82187 3.68132 -3.11344
580 1 -13.8522 10.15 1.18262 -2.76322
581 1 -12.2408 11.9398 1.54736 -2.80462
582 1 -12.5198 10.1071 3.26884 -3.28659
583 1 -10.699 9.99189 1.26745 -3.5226
584 1 -8.90086 11.7645 1.40551 -3.47105
585 1 -9.01733 9.8474 3.14588 -3.51363
586 1 -10.6946 11.6619 3.23988 -3.27938
587 1 -7.1267 10.1703 1.44273 -3.46728
588 1 -5.3572 11.8003 1.58486 -3.48212
589 1 -5.53928 9.95961 3.39303 -3.44993
590 1 -7.23398 11.643 3.46153 -3.45701
591 1 -3.57829 10.0233 1.6063 -3.49459
592 1 -1.75584 11.6139 1.71228 -3.48585
593 1 -1.87467 9.7172 3.56377 -3.46778
594 1 -3.59451 11.4582 3.54445 -3.5004
595 1 -0.0250638 9.92741 1.76989 -3.49539
596 1 1.70772 11.6259 1.81606 -3.51733
597 1 1.72721 9.84578 3.5846 -3.53698
598 1 -0.0825434 11.5849 3.82413 -3.51013
599 1 3.63404 9.85592 1.73151 -3.51911
600 1 5.48152 11.5788 1.81332 -3.47462
601 1 5.49732 9.80192 3.56271 -3.4935
602 1 3.65383 11.515 3.74367 -3.52213
603 1 7.32947 10.0155 1.61581 -3.49322
604 1 9.24098 11.4625 1.92812 -3.38431
605 1 8.99049 9.64813 3.62013 -3.54068
606 1 7.21891 11.5339 3.77495 -3.49805
607 1 10.9054 9.76379 1.75116 -3.50412
608 1 12.7517 11.4736 1.92859 -2.86656
609 1 12.6387 9.72289 3.81661 -3.3106
610 1 10.811 11.3643 3.75139 -3.34969
611 1 14.3772 9.7064 2.01331 -2.69707
612 1 -10.4749 13.698 1.49729 -2.6646
613 1 -8.93819 13.5177 3.43635 -3.10087
614 1 -7.10686 13.5355 1.76123 -3.3859
615 1 -5.15011 15.3313 1.87772 -3.00185
616 1 -5.35622 13.4718 3.64295 -3.43177
617 1 -6.83031 15.2231 3.96809 -2.65188
618 1 -3.47516 13.4346 1.93572 -3.48631
619 1 -1.88668 15.3508 2.19686 -3.07639
620 1 -1.88466 13.3455 3.73383 -3.48898
621 1 -3.6399 15.2017 3.86794 -3.04407
622 1 -0.0995148 13.447 1.86732 -3.53026
623 1 1.95503 15.1054 1.97378 -3.15318
624 1 1.73441 13.1902 3.72989 -3.4674
625 1 0.164918 14.9933 3.79532 -3.20636
626 1 3.64338 13.3103 1.95671 -3.45649
627 1 5.52141 15.0716 1.9616 -2.98784
628 1 5.35047 13.3011 3.65195 -3.42597
629 1 3.51166 15.0773 4.04824 -2.99001
630 1 7.30643 13.2249 1.96426 -3.40699
631 1 9.0174 13.1591 3.9923 -3.13308
632 1 7.19952 14.84 4.08936 -2.70557
633 1 10.7347 13.2599 2.11838 -2.7044
634 1 -0.0477844 16.7114 2.1132 -2.35696
635 1 -5.77964 -15.1036 5.80621 -2.80659
636 1 -7.48788 -15.0319 7.38276 -2.53792
637 1 -1.67418 -14.0712 6.35011 -3.03992
638 1 -3.29192 -14.093 8.14035 -3.06423
639 1 0.146819 -13.9454 4.66101 -3.15897
640 1 2.01318 -14.1999 6.2924 -3.03245
641 1 0.159395 -14.1108 8.07316 -3.12234
642 1 5.63375 -14.2534 6.48655 -3.00654
643 1 3.85981 -14.3469 8.29128 -3.02589
644 1 7.25893 -14.2585 8.52453 -2.74859
645 1 -12.7592 -11.1289 5.67986 -2.87366
646 1 -10.9572 -13.1027 5.67152 -2.70917
647 1 -9.24402 -11.3068 5.77295 -3.46231
648 1 -9.28332 -13.3871 7.65697 -3.09988
649 1 -10.8482 -11.5037 7.56441 -3.33386
650 1 -7.58487 -13.1696 5.78122 -3.3604
651 1 -5.58834 -11.5484 5.98335 -3.53015
652 1 -5.8049 -13.414 7.62981 -3.27758
653 1 -7.43814 -11.5511 7.68813 -3.50126
654 1 -4.01159 -13.4295 5.83325 -3.32804
655 1 -2.12176 -11.7376 5.9726 -3.52487
656 1 -1.47354 -12.3508 8.35586 -3.47461
657 1 -4.00947 -11.7214 7.94275 -3.47652
658 1 0.223955 -12.3015 6.44551 -3.44426
659 1 1.99695 -12.2505 4.68234 -3.49651
660 1 2.01377 -12.4743 8.20562 -3.48183
661 1 0.278596 -10.5529 8.38325 -3.52799
662 1 3.95159 -12.4368 6.56589 -3.45174
663 1 5.7804 -10.7768 6.68333 -3.52659
664 1 5.57928 -12.5212 8.41757 -3.42589
665 1 4.02563 -10.7325 8.50837 -3.48622
666 1 7.59263 -12.5997 6.59271 -3.38419
667 1 9.25536 -10.7188 6.61682 -3.44789
668 1 9.12061 -12.5678 8.60363 -3.11084
669 1 7.51344 -10.8651 8.54908 -3.51022
670 1 10.8592 -12.6463 6.70955 -2.68072
671 1 12.9952 -10.8536 6.61097 -2.71788
672 1 11.1145 -11.082 8.6291 -3.2841
673 1 -14.4048 -9.14224 5.84073 -2.76195
674 1 -12.6951 -7.51948 5.95826 -3.46241
675 1 -12.695 -9.67019 7.62305 -3.30597
676 1 -14.4678 -7.62164 7.80595 -3.14297
677 1 -10.9127 -9.37279 5.81641 -3.49381
678 1 -9.07303 -7.75392 6.01667 -3.49783
679 1 -8.98126 -9.65023 7.78909 -3.50434
680 1 -10.8316 -7.82568 7.85045 -3.52923
681 1 -7.33375 -9.56437 6.01394 -3.47727
682 1 -5.58151 -8.01535 6.01544 -3.43737
683 1 -5.70441 -9.75847 7.89159 -3.51204
684 1 -7.29858 -7.7935 7.91226 -3.52781
685 1 -3.88771 -9.7951 5.99354 -3.52754
686 1 -2.09423 -8.05002 6.16597 -3.51902
687 1 -2.19187 -9.92393 7.97492 -3.52246
688 1 -3.95454 -8.12191 8.01309 -3.50873
689 1 -0.361418 -9.8707 6.05866 -3.52308
690 1 1.50669 -9.81266 4.26627 -3.52427
691 1 2.2525 -10.6891 6.64852 -3.4569
692 1 -0.23728 -8.17768 8.00267 -3.49002
693 1 3.86998 -10.5352 4.91131 -3.47492
694 1 5.80076 -8.84842 5.04576 -3.49981
695 1 5.72375 -8.94385 8.63862 -3.50439
696 1 4.02848 -8.95922 6.69505 -3.46538
697 1 7.57379 -8.90716 6.75979 -3.52968
698 1 9.37539 -7.10867 6.75272 -3.51149
699 1 9.41251 -9.0546 8.63673 -3.53627
700 1 7.50605 -7.27706 8.67584 -3.4956
701 1 11.1153 -8.924 6.76652 -3.48505
702 1 12.8854 -7.14363 7.09315 -3.43382
703 1 12.8695 -9.03925 8.88896 -3.34536
704 1 11.0703 -7.16145 8.81904 -3.49433
705 1 14.5096 -9.01305 6.96219 -2.72993
706 1 14.8258 -7.40926 8.93676 -3.06518
707 1 -16.2775 -4.204 6.39335 -2.96258
708 1 -16.2334 -6.01213 8.03867 -2.72388
709 1 -14.5611 -5.78654 5.98799 -3.354
710 1 -12.4962 -4.29489 6.24849 -3.47614
711 1 -12.5873 -5.97856 7.9015 -3.4669
712 1 -14.3945 -4.28296 8.11508 -3.48536
713 1 -10.8191 -5.92262 5.98292 -3.44088
714 1 -9.15034 -4.20487 6.20445 -3.51485
715 1 -9.19562 -5.95612 8.00579 -3.51387
716 1 -10.9087 -4.2807 8.33254 -3.43965
717 1 -7.33254 -6.10908 6.09331 -3.51211
718 1 -5.55665 -4.38212 6.4149 -3.49218
719 1 -5.47428 -6.16538 8.15803 -3.46579
720 1 -7.2365 -4.41542 8.17622 -3.50626
721 1 -3.80426 -6.22834 6.27285 -3.52669
722 1 -2.10762 -6.13801 4.26411 -3.47617
723 1 -2.02942 -6.40718 8.12429 -3.53449
724 1 -3.73584 -4.51395 8.40293 -3.52618
725 1 -0.209505 -8.03034 4.30845 -3.48566
726 1 1.51509 -6.3181 4.49138 -3.50561
727 1 1.51311 -8.26288 6.19447 -3.50723
728 1 -0.314748 -6.35885 6.17115 -3.51735
729 1 3.42589 -8.0976 4.43679 -3.50686
730 1 5.11484 -6.21919 4.57578 -3.49949
731 1 5.66931 -7.07201 6.89372 -3.52421
732 1 3.36144 -6.29868 6.25293 -3.49824
733 1 7.58389 -7.04381 5.00885 -3.52795
734 1 9.47668 -5.24368 5.07145 -3.4891
735 1 9.3216 -5.54248 8.90566 -3.4908
736 1 7.49799 -5.42664 6.94785 -3.4779
737 1 11.2465 -5.43373 6.98863 -3.48944
738 1 13.0065 -3.64507 7.36808 -3.50345
739 1 13.0627 -5.56187 9.07017 -3.4913
740 1 11.0966 -3.86115 9.1589 -3.50134