ITEM: TIMESTEP
10000
ITEM: NUMBER OF ATOMS
3804
ITEM: BOX BOUNDS ss ss pp
-1.7971986704026072e+01 1.7983621082315029e+01
-1.8191774335511194e+01 1.8122342402532531e+01
-2.1690000000000001e-01 4.3596900000000005e+01
ITEM: ATOMS id type x y z c_peratom
1 1 -5.24929 -16.4315 43.6259 -2.98305
2 1 -6.93422 -16.2137 1.61648 -2.73586
3 1 -1.87262 -16.3612 -0.319206 -3.12322
4 1 -3.57332 -16.3699 1.64528 -3.04667
5 1 -0.0130251 -17.814 -0.288264 -2.43075
6 1 1.8603 -16.1367 -0.314832 -3.16633
7 1 -0.0621094 -16.4413 1.83907 -3.16132
8 1 5.35311 -16.3906 -0.23581 -2.95925
9 1 3.63028 -16.4805 1.65082 -3.00965
10 1 7.10979 -16.1545 1.77176 -2.76575
11 1 -12.6211 -12.7769 0.0101334 -2.83921
12 1 -10.694 -14.3592 -0.364797 -2.74554
13 1 -8.92498 -12.6828 43.6042 -3.41532
14 1 -9.00988 -14.6424 1.43671 -3.09686
15 1 -10.6334 -12.7516 1.65952 -3.34821
16 1 -7.13814 -14.5326 -0.254605 -3.39096
17 1 -5.35151 -12.6864 -0.224167 -3.50323
18 1 -5.27706 -14.4898 1.65419 -3.45152
19 1 -7.09882 -12.8315 1.6542 -3.51938
20 1 -3.63841 -14.4486 -0.222352 -3.43725
21 1 -1.83331 -12.8525 43.6791 -3.46034
22 1 -1.8001 -14.7244 1.61658 -3.465
23 1 -3.43941 -12.7809 1.60601 -3.44831
24 1 -0.140828 -14.6407 -0.145297 -3.48243
25 1 1.80072 -12.9375 -0.313464 -3.48374
26 1 1.7181 -14.701 1.60397 -3.47613
27 1 0.0550239 -12.813 1.71326 -3.53271
28 1 3.6668 -14.4502 -0.238401 -3.4496
29 1 5.4488 -12.6891 -0.154855 -3.52478
30 1 5.35036 -14.4933 1.76087 -3.44795
31 1 3.68702 -12.8053 1.75506 -3.46955
32 1 7.16081 -14.4972 -0.103921 -3.38515
33 1 9.03559 -12.6655 43.5286 -3.48073
34 1 9.03605 -14.477 1.51281 -3.13134
35 1 7.29809 -12.7322 1.68801 -3.5167
36 1 10.7467 -14.4289 43.5509 -2.73256
37 1 12.502 -12.5984 -0.11806 -2.90727
38 1 10.7525 -12.7252 1.7228 -3.36088
39 1 -14.3493 -10.8428 43.7818 -2.73492
40 1 -12.5655 -9.15121 43.7949 -3.45194
41 1 -12.5451 -10.9445 1.64274 -3.33839
42 1 -14.3363 -9.06113 1.86089 -3.12001
43 1 -10.655 -10.8599 -0.0972927 -3.5344
44 1 -8.87041 -9.1577 43.6656 -3.48119
45 1 -8.96926 -11.0044 1.68793 -3.50433
46 1 -10.7215 -9.05865 1.78942 -3.52347
47 1 -7.24153 -11.0683 43.6394 -3.4819
48 1 -5.34647 -9.10871 43.6866 -3.52099
49 1 -5.4404 -11.0884 1.72072 -3.51469
50 1 -7.28779 -9.18756 1.66167 -3.48379
51 1 -3.57333 -10.9652 43.7456 -3.52499
52 1 -1.7362 -9.10799 -0.157411 -3.51323
53 1 -1.74863 -11.0343 1.63259 -3.4761
54 1 -3.49058 -9.14322 1.73356 -3.52975
55 1 -0.0036534 -10.9733 -0.0152634 -3.47027
56 1 1.67094 -9.14074 -0.224926 -3.48578
57 1 1.84764 -10.962 1.54662 -3.51045
58 1 -0.0137637 -9.20673 1.66136 -3.50602
59 1 3.60644 -10.957 -0.217347 -3.50785
60 1 5.46832 -9.0651 -0.155438 -3.5086
61 1 5.30316 -10.924 1.66762 -3.51853
62 1 3.57374 -9.04915 1.68091 -3.55346
63 1 7.29399 -10.8485 -0.124511 -3.53083
64 1 9.09064 -9.06664 -0.159532 -3.4549
65 1 9.13061 -10.9029 1.70302 -3.50367
66 1 7.31838 -9.22551 1.73445 -3.52326
67 1 10.7862 -10.8224 -0.113275 -3.48221
68 1 12.6819 -9.09596 43.6664 -3.46214
69 1 12.5889 -10.88 1.59243 -3.35534
70 1 10.8786 -9.14321 1.72449 -3.48123
71 1 14.4194 -10.9198 -0.13426 -2.7245
72 1 14.6533 -9.12706 1.70396 -3.08795
73 1 -16.207 -5.59931 43.7733 -3.01122
74 1 -15.9539 -7.27964 1.71163 -2.78129
75 1 -14.2934 -7.3996 43.7723 -3.31444
76 1 -12.4732 -5.52836 -0.00162727 -3.48523
77 1 -12.717 -7.29791 1.63603 -3.44418
78 1 -14.3069 -5.34504 1.63462 -3.43006
79 1 -10.8219 -7.37447 43.7573 -3.5246
80 1 -8.8275 -5.46914 43.65 -3.51518
81 1 -8.90023 -7.36672 1.66151 -3.48161
82 1 -10.6944 -5.61758 1.71864 -3.50767
83 1 -7.12642 -7.39284 43.7481 -3.48777
84 1 -5.40487 -5.50678 -0.118435 -3.53153
85 1 -5.31917 -7.40923 1.7004 -3.50248
86 1 -7.25907 -5.62002 1.78472 -3.50683
87 1 -3.55459 -7.22746 43.7164 -3.5105
88 1 -1.75578 -5.50531 43.6132 -3.50629
89 1 -1.74081 -7.30584 1.87823 -3.50402
90 1 -3.66503 -5.33955 1.63923 -3.4855
91 1 -0.0240634 -7.21053 43.6769 -3.49452
92 1 1.81397 -5.57739 -0.18072 -3.46307
93 1 1.6753 -7.20399 1.64319 -3.502
94 1 0.0792923 -5.37411 1.74537 -3.49181
95 1 3.75918 -7.30428 -0.146042 -3.48323
96 1 5.60526 -5.46319 43.6382 -3.50976
97 1 5.47989 -7.34823 1.71169 -3.54843
98 1 3.5919 -5.59658 1.55919 -3.51527
99 1 7.30923 -7.35063 -0.230969 -3.51079
100 1 9.15356 -5.43024 43.6779 -3.49618
101 1 9.0704 -7.33579 1.5763 -3.51719
102 1 7.25529 -5.40676 1.70517 -3.48564
103 1 10.9595 -7.39691 -0.0622124 -3.48926
104 1 12.7487 -5.3755 -0.150958 -3.51422
105 1 12.8216 -7.44956 1.65213 -3.50852
106 1 10.8824 -5.32326 1.6463 -3.45919
107 1 14.4852 -7.30369 -0.199959 -3.33676
108 1 16.1891 -5.47323 43.6596 -3.00499
109 1 16.1153 -7.2024 1.58647 -2.74677
110 1 14.5092 -5.45123 1.66675 -3.43061
111 1 -16.1611 -1.83058 43.6907 -3.15727
112 1 -16.2781 -3.60083 1.52057 -3.02122
113 1 -14.2661 -3.81336 -0.140906 -3.41717
114 1 -12.6023 -1.81724 -0.146537 -3.48676
115 1 -12.4223 -3.61727 1.63279 -3.52061
116 1 -14.4463 -1.95999 1.72708 -3.47063
117 1 -10.5521 -3.67145 -0.0460063 -3.52599
118 1 -8.8348 -1.78973 43.7852 -3.43724
119 1 -8.89181 -3.67736 1.76303 -3.51213
120 1 -10.7436 -1.82112 1.62968 -3.50804
121 1 -7.21823 -3.62719 43.5723 -3.49022
122 1 -5.42976 -1.67016 -0.213537 -3.49874
123 1 -5.51329 -3.58714 1.55033 -3.52699
124 1 -7.12171 -1.8116 1.4621 -3.41169
125 1 -3.57473 -3.69346 43.7265 -3.4645
126 1 -1.78549 -1.84228 -0.112554 -3.48522
127 1 -1.75233 -3.60205 1.60663 -3.52118
128 1 -3.65384 -1.82907 1.5381 -3.51358
129 1 0.103018 -3.72222 43.5951 -3.49429
130 1 1.88609 -1.90922 43.754 -3.50414
131 1 1.78429 -3.66585 1.66553 -3.51464
132 1 -0.0270588 -1.89015 1.84957 -3.46909
133 1 3.76879 -3.75128 43.6974 -3.54298
134 1 5.56723 -1.95177 43.535 -3.52201
135 1 5.45027 -3.71895 1.67986 -3.46594
136 1 3.73099 -1.81457 1.51655 -3.51168
137 1 7.30534 -3.72824 -0.0889247 -3.48443
138 1 8.92923 -1.82191 -0.204444 -3.50979
139 1 8.94681 -3.52031 1.683 -3.49197
140 1 7.06992 -1.81751 1.65465 -3.50031
141 1 10.8466 -3.77921 -0.206062 -3.45576
142 1 12.7677 -1.97074 43.6252 -3.50875
143 1 12.5758 -3.68442 1.61862 -3.46213
144 1 10.9514 -1.82938 1.60385 -3.52571
145 1 14.4753 -3.70515 -0.192532 -3.45122
146 1 16.2998 -1.80127 -0.326252 -3.13328
147 1 16.2534 -3.58249 1.7062 -3.02458
148 1 14.4794 -1.84869 1.62518 -3.51114
149 1 -18.0513 0.064015 43.8457 -2.29142
150 1 -16.2675 1.91983 -0.289305 -3.13139
151 1 -16.27 0.14876 1.56754 -3.21838
152 1 -14.3236 -0.162597 -0.247135 -3.41828
153 1 -12.7538 1.73964 -0.208154 -3.50456
154 1 -12.7608 -0.126048 1.63912 -3.50253
155 1 -14.4635 1.80167 1.53879 -3.49537
156 1 -10.7413 0.0416761 -0.154364 -3.51772
157 1 -8.91963 1.87663 43.6197 -3.46979
158 1 -8.97977 0.12506 1.55695 -3.49887
159 1 -10.9168 1.82688 1.47531 -3.51319
160 1 -7.14219 0.131315 -0.296035 -3.46899
161 1 -5.43915 1.7957 -0.117684 -3.49172
162 1 -5.31282 -0.0647438 1.70445 -3.46045
163 1 -7.08375 1.79655 1.62823 -3.50426
164 1 -3.55132 0.00212441 43.7258 -3.4828
165 1 -1.83092 1.79058 -0.15257 -3.51978
166 1 -1.7965 -0.123898 1.65889 -3.51886
167 1 -3.68171 1.73527 1.61333 -3.50255
168 1 -0.0355487 -0.00531251 -0.23983 -3.49024
169 1 1.80998 1.84745 43.8194 -3.43924
170 1 1.96656 -0.0310193 1.69641 -3.52065
171 1 -0.00951162 1.73254 1.6331 -3.52337
172 1 3.55641 0.0269738 43.5742 -3.49626
173 1 5.45598 1.76524 43.5236 -3.49991
174 1 5.38727 0.0100887 1.60616 -3.53548
175 1 3.70195 1.90446 1.61267 -3.5112
176 1 7.18918 -0.0330724 -0.136433 -3.48634
177 1 9.06928 1.65055 43.7 -3.52679
178 1 8.98692 -0.0989855 1.59288 -3.5085
179 1 7.22123 1.77505 1.57464 -3.52945
180 1 10.8502 -0.171444 -0.164241 -3.50293
181 1 12.6438 1.78197 43.6629 -3.51132
182 1 12.7462 0.0267835 1.51831 -3.50358
183 1 10.8851 1.86036 1.68675 -3.45814
184 1 14.4741 -0.0892561 -0.225681 -3.50187
185 1 16.2611 1.9102 43.5923 -3.14335
186 1 16.2349 -0.0908263 1.7426 -3.226
187 1 14.5752 1.757 1.55572 -3.48354
188 1 17.8806 0.0630065 -0.11928 -2.36272
189 1 -16.2887 5.37955 -0.359439 -3.00842
190 1 -16.1616 3.7085 1.6171 -3.06404
191 1 -14.4607 3.62507 -0.18648 -3.47283
192 1 -12.6209 5.491 43.5144 -3.45467
193 1 -12.6443 3.66385 1.4966 -3.50967
194 1 -14.3649 5.3798 1.56944 -3.41531
195 1 -10.9327 3.66342 43.5173 -3.50999
196 1 -8.98018 5.45741 43.5403 -3.52285
197 1 -9.05358 3.55764 1.53426 -3.53393
198 1 -10.9127 5.60691 1.3781 -3.49038
199 1 -7.19185 3.60615 43.5849 -3.51674
200 1 -5.55839 5.52213 43.6488 -3.47933
201 1 -5.47428 3.74864 1.67445 -3.50114
202 1 -7.27043 5.4326 1.56023 -3.49905
203 1 -3.58468 3.69914 43.6152 -3.53928
204 1 -1.66358 5.53763 43.5614 -3.47259
205 1 -1.87696 3.69973 1.6844 -3.52065
206 1 -3.67861 5.51772 1.57633 -3.52872
207 1 -0.0135513 3.60628 -0.174393 -3.52976
208 1 1.80706 5.49086 -0.312733 -3.5322
209 1 1.85026 3.57706 1.68221 -3.49199
210 1 0.0916455 5.41062 1.53159 -3.51085
211 1 3.50898 3.48029 43.503 -3.45963
212 1 5.40323 5.49827 43.7323 -3.46824
213 1 5.42299 3.71474 1.71468 -3.4734
214 1 3.54907 5.44288 1.60118 -3.54345
215 1 7.20686 3.69818 43.6576 -3.51289
216 1 9.06524 5.29605 -0.278374 -3.49833
217 1 9.12213 3.65734 1.47637 -3.48942
218 1 7.11332 5.52259 1.56009 -3.46573
219 1 10.9571 3.55745 43.6358 -3.50631
220 1 12.6692 5.52771 43.6934 -3.44957
221 1 12.7323 3.6663 1.59056 -3.47382
222 1 10.9361 5.44004 1.59778 -3.53849
223 1 14.4155 3.69483 43.5825 -3.45632
224 1 16.0569 5.34172 43.5283 -3.01324
225 1 16.1509 3.77065 1.5321 -3.02196
226 1 14.2971 5.43353 1.61569 -3.37844
227 1 -16.2464 7.09664 1.56332 -2.72912
228 1 -14.595 7.34172 -0.255154 -3.38724
229 1 -12.6665 9.11828 43.7788 -3.42291
230 1 -12.79 7.16613 1.51997 -3.467
231 1 -14.4792 9.06731 1.56849 -3.10703
232 1 -10.8113 7.29736 43.4772 -3.45841
233 1 -9.07524 9.06138 43.536 -3.51589
234 1 -9.04866 7.29099 1.54835 -3.52934
235 1 -10.935 9.03694 1.69549 -3.46779
236 1 -7.27046 7.17674 43.5349 -3.4411
237 1 -5.5366 9.00888 43.6728 -3.43501
238 1 -5.54908 7.26554 1.59254 -3.50853
239 1 -7.16908 9.16169 1.44496 -3.43008
240 1 -3.66066 7.26353 43.5865 -3.52982
241 1 -1.7829 9.185 43.5274 -3.52756
242 1 -1.87437 7.3954 1.61031 -3.47631
243 1 -3.79789 9.08858 1.55431 -3.49668
244 1 -0.0375626 7.44027 43.6553 -3.48155
245 1 1.77885 9.05626 43.6387 -3.49451
246 1 1.80567 7.22963 1.50094 -3.47113
247 1 0.0955736 9.12307 1.50628 -3.46245
248 1 3.66235 7.36672 43.4636 -3.46221
249 1 5.38555 9.15804 -0.104964 -3.46904
250 1 5.38054 7.31974 1.56394 -3.48255
251 1 3.64668 8.98849 1.64282 -3.50422
252 1 7.2055 7.21847 -0.26245 -3.52051
253 1 8.98357 9.10222 43.62 -3.49486
254 1 9.01845 7.28533 1.50952 -3.52474
255 1 7.22412 9.02426 1.69857 -3.51971
256 1 10.805 7.27726 43.5701 -3.52566
257 1 12.6757 9.22574 -0.27327 -3.40916
258 1 12.6888 7.35514 1.58463 -3.49788
259 1 10.8197 9.06945 1.57558 -3.50771
260 1 14.3215 7.15622 43.5242 -3.33785
261 1 16.1046 7.08289 1.55246 -2.77079
262 1 14.4457 9.11345 1.6109 -3.13932
263 1 -14.6781 10.5711 43.3998 -2.65405
264 1 -12.6924 12.3752 -0.305821 -2.90212
265 1 -12.6904 11.0012 1.66351 -3.29692
266 1 -10.872 10.7381 43.7584 -3.40673
267 1 -9.07574 12.7664 -0.45418 -3.42259
268 1 -9.23763 10.8114 1.57066 -3.46067
269 1 -10.9147 12.8011 1.55993 -3.32571
270 1 -7.25276 11.0064 43.5078 -3.51444
271 1 -5.44864 12.676 43.5078 -3.46541
272 1 -5.53234 10.8992 1.61751 -3.49756
273 1 -7.38221 12.6359 1.47873 -3.50914
274 1 -3.6631 10.8868 43.5664 -3.52755
275 1 -1.7724 12.6849 43.6165 -3.48083
276 1 -1.89345 10.7722 1.54916 -3.49832
277 1 -3.68042 12.7124 1.53185 -3.51297
278 1 0.0343569 10.9726 43.4238 -3.47806
279 1 1.68733 12.8509 43.4586 -3.50547
280 1 1.8295 11.0058 1.51862 -3.50354
281 1 -0.103223 12.5245 1.53056 -3.48535
282 1 3.64899 10.8448 -0.171736 -3.48003
283 1 5.45193 12.6399 43.4394 -3.52002
284 1 5.36899 10.9154 1.47965 -3.47359
285 1 3.57287 12.6815 1.59994 -3.49196
286 1 7.30619 10.892 43.6391 -3.53013
287 1 9.01473 12.6638 43.5901 -3.46257
288 1 9.11274 10.7901 1.55984 -3.4687
289 1 7.32328 12.7566 1.51795 -3.50219
290 1 10.8519 10.9107 -0.144487 -3.49747
291 1 12.6702 12.6392 43.6603 -2.91636
292 1 12.7198 10.8684 1.57827 -3.33214
293 1 10.7213 12.7223 1.52487 -3.29107
294 1 14.403 10.889 43.5585 -2.73937
295 1 -10.9267 14.2527 -0.335428 -2.72434
296 1 -9.12757 14.5783 1.55175 -3.10351
297 1 -7.34119 14.3881 43.4715 -3.37614
298 1 -5.51408 16.201 43.4113 -3.00437
299 1 -5.48273 14.3539 1.29489 -3.42579
300 1 -7.18068 16.1898 1.49322 -2.75086
301 1 -3.50991 14.6106 43.5461 -3.48767
302 1 -1.9773 16.418 -0.305485 -3.15381
303 1 -1.74144 14.6514 1.67956 -3.46092
304 1 -3.77648 16.4549 1.52769 -3.00131
305 1 -0.255473 14.5478 -0.285268 -3.45462
306 1 1.68366 16.508 -0.189802 -3.13224
307 1 1.55503 14.4586 1.52814 -3.5014
308 1 -0.226023 16.5455 1.55735 -3.15533
309 1 3.54885 14.5928 43.6836 -3.45625
310 1 5.46402 16.449 43.5672 -2.98711
311 1 5.49522 14.4612 1.39242 -3.46029
312 1 3.5672 16.3302 1.43099 -3.00163
313 1 7.1554 14.5353 43.4243 -3.33393
314 1 9.08487 14.6101 1.58836 -3.1362
315 1 7.12035 16.2938 1.52977 -2.7412
316 1 10.7997 14.3926 -0.361717 -2.75693
317 1 -0.119671 18.0455 -0.911105 -2.41716
318 1 -5.30696 -16.6018 3.67359 -2.91476
319 1 -7.26196 -16.2003 5.46131 -2.71379
320 1 -1.9646 -16.3397 3.47064 -3.0754
321 1 -3.4054 -16.4363 5.42295 -3.00401
322 1 -0.238148 -17.9393 3.57643 -2.35574
323 1 1.87141 -16.6185 3.40937 -3.09487
324 1 0.162428 -16.343 5.33578 -3.27274
325 1 5.36818 -16.4013 3.53948 -2.99239
326 1 3.53735 -16.5647 5.31117 -3.0275
327 1 7.19776 -16.1886 5.12194 -2.71051
328 1 -12.5669 -12.7237 3.42122 -2.83855
329 1 -10.8312 -14.5198 3.40842 -2.70063
330 1 -9.01259 -12.757 3.50599 -3.47334
331 1 -9.17324 -14.63 5.18493 -3.10594
332 1 -11.0224 -12.771 5.2703 -3.32418
333 1 -7.14705 -14.7944 3.52009 -3.30447
334 1 -5.38723 -12.811 3.67876 -3.51586
335 1 -5.38325 -14.6736 5.48244 -3.47487
336 1 -7.36178 -12.7933 5.30338 -3.48658
337 1 -3.60654 -14.6166 3.5589 -3.47596
338 1 -1.84681 -12.7914 3.50175 -3.54345
339 1 -1.78435 -14.5979 5.30268 -3.48471
340 1 -3.51009 -12.8234 5.48911 -3.50403
341 1 0.0316125 -14.5974 3.51513 -3.5484
342 1 1.85426 -12.8306 3.43369 -3.49448
343 1 1.93595 -14.5111 5.31152 -3.44548
344 1 0.00733733 -12.7672 5.30467 -3.50562
345 1 3.47305 -14.687 3.56448 -3.43909
346 1 5.47569 -12.8504 3.55352 -3.4622
347 1 5.30499 -14.7028 5.24462 -3.42952
348 1 3.78366 -12.7615 5.35225 -3.49852
349 1 7.27198 -14.4552 3.46512 -3.31577
350 1 8.99828 -12.7787 3.55334 -3.47525
351 1 8.99306 -14.5804 5.32624 -3.12014
352 1 7.05016 -12.707 5.4429 -3.54937
353 1 10.8232 -14.5353 3.45725 -2.71472
354 1 12.6432 -12.8058 3.39918 -2.8745
355 1 10.9081 -12.7654 5.27837 -3.33734
356 1 -14.0875 -11.0109 3.61433 -2.71272
357 1 -12.524 -9.16925 3.52121 -3.44431
358 1 -12.6127 -10.9473 5.56123 -3.25578
359 1 -14.3862 -8.90951 5.46852 -3.1096
360 1 -10.8559 -10.8947 3.54179 -3.53054
361 1 -8.87565 -9.19518 3.51464 -3.50452
362 1 -9.05822 -10.8286 5.27229 -3.44945
363 1 -10.837 -9.07613 5.40852 -3.52251
364 1 -7.16672 -11.0263 3.56136 -3.482
365 1 -5.55385 -9.15198 3.56865 -3.52949
366 1 -5.5263 -10.9911 5.32091 -3.46462
367 1 -7.28067 -9.19934 5.38812 -3.501
368 1 -3.66591 -10.9877 3.41505 -3.51412
369 1 -1.64072 -9.21397 3.5289 -3.49801
370 1 -1.7568 -11.0469 5.39823 -3.50653
371 1 -3.60647 -9.08872 5.22747 -3.51232
372 1 0.0721125 -11.0701 3.50171 -3.52965
373 1 1.73714 -9.14525 3.50638 -3.50065
374 1 1.79057 -10.9941 5.37986 -3.5271
375 1 0.0109947 -9.117 5.34415 -3.50497
376 1 3.61825 -10.9282 3.43892 -3.50506
377 1 5.48794 -9.20524 3.5346 -3.49382
378 1 5.30402 -10.8504 5.34264 -3.48353
379 1 3.51035 -9.17762 5.14611 -3.47619
380 1 7.14017 -11.0966 3.49771 -3.49707
381 1 9.20168 -9.10885 3.47361 -3.49511
382 1 9.00874 -11.0033 5.31349 -3.52526
383 1 7.26611 -9.16073 5.21092 -3.51152
384 1 10.8567 -10.9682 3.61612 -3.51065
385 1 12.6454 -9.08303 3.51179 -3.4912
386 1 12.6906 -10.9727 5.20736 -3.3088
387 1 10.7831 -9.09717 5.35761 -3.48852
388 1 14.2762 -10.8421 3.39186 -2.76362
389 1 14.4468 -9.14649 5.31583 -3.15153
390 1 -16.2294 -5.37869 3.3503 -2.98199
391 1 -16.0722 -7.16627 5.22185 -2.71532
392 1 -14.3562 -7.12561 3.58649 -3.35563
393 1 -12.5442 -5.39538 3.40702 -3.50015
394 1 -12.5376 -7.26787 5.36257 -3.48658
395 1 -14.0926 -5.41916 5.37834 -3.43095
396 1 -10.8314 -7.32452 3.45147 -3.50398
397 1 -9.0959 -5.53262 3.51009 -3.49574
398 1 -9.06263 -7.32881 5.22593 -3.53076
399 1 -10.9267 -5.45562 5.26107 -3.52177
400 1 -7.16801 -7.27073 3.56375 -3.4881
401 1 -5.29577 -5.42162 3.46579 -3.50121
402 1 -5.38977 -7.2107 5.38797 -3.51435
403 1 -7.20416 -5.5227 5.17786 -3.49093
404 1 -3.63355 -7.17127 3.41194 -3.46558
405 1 -1.7785 -5.42595 3.43693 -3.51997
406 1 -1.84841 -7.26964 5.29913 -3.51232
407 1 -3.46414 -5.43677 5.26303 -3.50163
408 1 0.0398002 -7.41796 3.53862 -3.42191
409 1 1.85073 -5.45 3.56253 -3.4892
410 1 1.73815 -7.24307 5.14831 -3.42836
411 1 -0.0291349 -5.61937 5.33221 -3.52972
412 1 3.6173 -7.26833 3.5572 -3.52025
413 1 5.44792 -5.40452 3.37496 -3.48169
414 1 5.4891 -7.18184 5.12343 -3.48887
415 1 3.76637 -5.40492 5.2945 -3.48091
416 1 7.38993 -7.3231 3.49586 -3.51436
417 1 9.08473 -5.43208 3.44568 -3.53775
418 1 9.1615 -7.16412 5.28847 -3.50695
419 1 7.21461 -5.43405 5.23624 -3.54045
420 1 10.9462 -7.2573 3.51153 -3.52554
421 1 12.7221 -5.58036 3.42963 -3.53128
422 1 12.6532 -7.25785 5.35601 -3.49408
423 1 10.9572 -5.42798 5.24185 -3.49626
424 1 14.5619 -7.32275 3.5657 -3.39702
425 1 16.2833 -5.4747 3.57199 -2.9941
426 1 16.2555 -7.19841 5.39816 -2.72987
427 1 14.4541 -5.44296 5.30966 -3.45315
428 1 -16.3881 -1.90674 3.39265 -3.09858
429 1 -16.0376 -3.65918 5.32311 -3.0528
430 1 -14.3194 -3.69292 3.356 -3.44789
431 1 -12.6387 -1.74157 3.47532 -3.52043
432 1 -12.597 -3.60287 5.2481 -3.47944
433 1 -14.4772 -1.58578 5.22218 -3.46883
434 1 -10.7828 -3.60059 3.46788 -3.54106
435 1 -8.8233 -1.71455 3.47514 -3.51512
436 1 -8.77641 -3.59409 5.19925 -3.509
437 1 -10.7897 -1.78192 5.25927 -3.48965
438 1 -7.17487 -3.55916 3.39584 -3.45982
439 1 -5.44144 -1.7815 3.49198 -3.50761
440 1 -5.37211 -3.57886 5.16014 -3.51526
441 1 -7.06844 -1.75364 5.34835 -3.47467
442 1 -3.59769 -3.5822 3.44084 -3.54074
443 1 -1.88718 -1.81558 3.48647 -3.48371
444 1 -1.75422 -3.51667 5.24103 -3.51075
445 1 -3.57234 -1.80025 5.24443 -3.50185
446 1 -0.0350012 -3.57964 3.49402 -3.46968
447 1 1.95975 -1.85443 3.49703 -3.5448
448 1 1.73656 -3.64216 5.23459 -3.5331
449 1 0.111496 -1.75169 5.33849 -3.50339
450 1 3.63163 -3.78881 3.37836 -3.50241
451 1 5.46677 -1.96682 3.48454 -3.50615
452 1 5.45037 -3.6376 5.26214 -3.50077
453 1 3.7212 -1.79846 5.34552 -3.4655
454 1 7.27477 -3.62837 3.40254 -3.48807
455 1 9.07894 -1.85979 3.43314 -3.51442
456 1 9.1611 -3.7133 5.2435 -3.52353
457 1 7.35768 -1.873 5.30156 -3.5116
458 1 10.882 -3.58686 3.4654 -3.48944
459 1 12.7214 -1.89605 3.48252 -3.48962
460 1 12.6786 -3.59848 5.1523 -3.46334
461 1 10.9339 -1.9334 5.29569 -3.50559
462 1 14.488 -3.79306 3.41853 -3.46184
463 1 16.2949 -1.84524 3.40648 -3.12232
464 1 16.1727 -3.78074 5.31536 -3.03611
465 1 14.4685 -1.87854 5.14843 -3.46886
466 1 -17.962 -0.0342093 3.30123 -2.31313
467 1 -16.2135 2.04685 3.55186 -3.13469
468 1 -16.3447 0.171397 5.26411 -3.2268
469 1 -14.5911 0.0560909 3.51873 -3.47248
470 1 -12.6036 1.80927 3.43292 -3.51631
471 1 -12.4713 0.128309 5.13944 -3.48144
472 1 -14.3758 1.79202 5.21561 -3.4513
473 1 -10.789 -0.00685125 3.25611 -3.51234
474 1 -9.01736 1.81649 3.32497 -3.52443
475 1 -9.05718 -0.0811774 5.24088 -3.4852
476 1 -10.6573 1.73084 5.19274 -3.47201
477 1 -7.13751 0.0424839 3.33247 -3.5084
478 1 -5.34401 1.88427 3.46181 -3.52791
479 1 -5.43791 0.0134378 5.24176 -3.48965
480 1 -7.10563 1.79125 5.18518 -3.50656
481 1 -3.64604 -0.0362469 3.4737 -3.51952
482 1 -1.90081 1.79381 3.39506 -3.52835
483 1 -1.68834 0.0379807 5.18575 -3.50236
484 1 -3.53737 1.81457 5.2952 -3.51099
485 1 0.0366536 -0.00585968 3.50281 -3.50655
486 1 1.92445 1.7848 3.47021 -3.50135
487 1 1.99863 0.0211917 5.25877 -3.48533
488 1 0.151101 1.84311 5.12823 -3.50374
489 1 3.64765 0.0017449 3.5218 -3.48618
490 1 5.50503 1.86421 3.41482 -3.49791
491 1 5.56148 -0.080129 5.16881 -3.52219
492 1 3.86125 1.92948 5.16169 -3.40643
493 1 7.27578 0.0133038 3.39625 -3.50245
494 1 9.12919 1.86236 3.2349 -3.46558
495 1 9.04768 -0.134378 5.30025 -3.50986
496 1 7.30192 1.68009 5.13927 -3.48699
497 1 10.9578 -0.0405761 3.42289 -3.52584
498 1 12.6896 1.70681 3.32211 -3.50087
499 1 12.6263 -0.0728614 5.28058 -3.49786
500 1 10.892 1.71746 5.08393 -3.51103
501 1 14.4518 -0.033792 3.48551 -3.51099
502 1 16.1621 1.7902 3.47538 -3.15848
503 1 16.2497 0.0198253 5.18083 -3.21268
504 1 14.3031 1.83667 5.32119 -3.50559
505 1 17.8686 -0.0118891 3.47945 -2.36382
506 1 -16.0884 5.46163 3.31005 -2.98135
507 1 -16.0539 3.72709 5.23849 -3.06346
508 1 -14.2831 3.7295 3.38497 -3.49949
509 1 -12.5511 5.53021 3.40506 -3.52779
510 1 -12.5401 3.61979 5.19645 -3.51846
511 1 -14.3983 5.44785 5.27783 -3.44011
512 1 -10.8657 3.66381 3.41102 -3.50874
513 1 -9.12913 5.38538 3.27918 -3.526
514 1 -8.95279 3.55726 5.1842 -3.50981
515 1 -10.8174 5.62061 5.22744 -3.48556
516 1 -7.17534 3.57677 3.41107 -3.51768
517 1 -5.54389 5.56441 3.44623 -3.46907
518 1 -5.35918 3.72364 5.4062 -3.45845
519 1 -7.22337 5.42045 5.16748 -3.48886
520 1 -3.67625 3.75089 3.40093 -3.51626
521 1 -1.81978 5.62029 3.35107 -3.53621
522 1 -1.7223 3.71663 5.22477 -3.52638
523 1 -3.47971 5.41921 5.30664 -3.47419
524 1 0.0624128 3.74481 3.4426 -3.5264
525 1 1.85036 5.6287 3.39685 -3.47846
526 1 1.93678 3.74711 5.12961 -3.49763
527 1 -0.000436971 5.57935 5.23543 -3.5531
528 1 3.58537 3.65213 3.41237 -3.46179
529 1 5.31281 5.40829 3.48028 -3.49881
530 1 5.42089 3.53259 5.3006 -3.44615
531 1 3.58891 5.54072 5.1861 -3.48452
532 1 7.22377 3.7673 3.37519 -3.51051
533 1 8.98237 5.48076 3.28654 -3.50842
534 1 8.98446 3.4965 5.12181 -3.51175
535 1 7.18444 5.50232 5.30963 -3.4974
536 1 10.8897 3.54653 3.44639 -3.49916
537 1 12.6968 5.4665 3.38834 -3.49795
538 1 12.5569 3.67892 5.23138 -3.47961
539 1 10.8345 5.51249 5.30676 -3.50343
540 1 14.3723 3.53809 3.33648 -3.48023
541 1 16.1824 5.32522 3.32142 -2.97638
542 1 16.2402 3.5568 5.25017 -3.01297
543 1 14.3467 5.35935 5.14571 -3.43743
544 1 -16.2503 6.92128 5.22617 -2.70007
545 1 -14.433 7.24187 3.37872 -3.37386
546 1 -12.7874 9.09285 3.34833 -3.43725
547 1 -12.6693 7.34992 5.18244 -3.48387
548 1 -14.4793 8.94814 5.36295 -3.11587
549 1 -10.8343 7.30892 3.41758 -3.4953
550 1 -8.93771 9.00046 3.33087 -3.48131
551 1 -9.01922 7.22159 5.40071 -3.474
552 1 -10.8837 9.06801 5.2866 -3.54174
553 1 -7.20542 7.31651 3.50981 -3.46894
554 1 -5.54921 9.14758 3.31515 -3.51403
555 1 -5.47453 7.19418 5.25136 -3.48973
556 1 -7.3281 9.28239 5.2705 -3.48921
557 1 -3.67612 7.47809 3.42974 -3.49427
558 1 -1.84523 8.97284 3.29561 -3.4447
559 1 -1.91043 7.29201 5.27353 -3.48958
560 1 -3.62827 9.2398 5.1663 -3.4882
561 1 0.0856373 7.33908 3.15831 -3.46895
562 1 1.82501 9.10711 3.43963 -3.55678
563 1 1.82031 7.26839 5.15185 -3.49889
564 1 -0.0669283 8.95427 5.18546 -3.50558
565 1 3.70797 7.27986 3.36787 -3.50288
566 1 5.36274 9.20963 3.47706 -3.50526
567 1 5.2947 7.37848 5.26196 -3.46535
568 1 3.64908 9.17057 5.21871 -3.49373
569 1 7.00434 7.20307 3.47741 -3.51714
570 1 8.95655 9.05469 3.30925 -3.47629
571 1 8.84302 7.23744 5.19317 -3.48559
572 1 7.28733 9.08143 5.08911 -3.49898
573 1 10.7217 7.193 3.42602 -3.52667
574 1 12.5872 9.03654 3.36839 -3.4421
575 1 12.5575 7.33486 5.17385 -3.53015
576 1 10.7109 8.94593 5.30683 -3.51678
577 1 14.3598 7.33241 3.33512 -3.33747
578 1 15.8107 7.17925 5.36034 -2.7448
579 1 14.3133 9.07188 5.14507 -3.11234
580 1 -14.4044 10.8162 3.60987 -2.72009
581 1 -12.6836 12.7611 3.40011 -2.86699
582 1 -12.695 10.954 5.29045 -3.32698
583 1 -10.9866 10.864 3.38908 -3.5132
584 1 -9.18403 12.9073 3.33803 -3.43674
585 1 -9.1708 11.0046 5.19482 -3.51744
586 1 -11.0402 12.7657 5.2198 -3.30302
587 1 -7.41948 10.9845 3.31497 -3.51611
588 1 -5.40218 12.7467 3.37882 -3.52932
589 1 -5.43301 10.9269 5.15717 -3.50801
590 1 -7.3321 12.9008 5.10806 -3.51226
591 1 -3.57631 10.7906 3.33279 -3.49773
592 1 -1.92998 12.6023 3.42794 -3.49906
593 1 -1.73527 10.8664 5.21604 -3.49995
594 1 -3.64912 12.6425 5.1947 -3.51214
595 1 -0.096968 10.8468 3.39367 -3.52385
596 1 1.90291 12.6826 3.32859 -3.45398
597 1 1.65448 11.1122 5.22674 -3.50506
598 1 -0.194975 12.8601 5.17958 -3.49541
599 1 3.66044 10.8899 3.49824 -3.4834
600 1 5.54289 12.6476 3.25866 -3.50532
601 1 5.59083 10.9727 5.26029 -3.52194
602 1 3.75259 12.7215 5.10308 -3.49211
603 1 7.24617 10.965 3.23259 -3.49794
604 1 9.06185 12.736 3.32969 -3.46085
605 1 8.93018 10.9122 5.12936 -3.52619
606 1 7.39907 12.8332 5.11273 -3.52083
607 1 10.8534 10.7462 3.38977 -3.54033
608 1 12.5819 12.6149 3.31712 -2.88205
609 1 12.5639 10.8697 5.2347 -3.34496
610 1 10.771 12.6337 5.21382 -3.35549
611 1 14.3 10.8241 3.44335 -2.76159
612 1 -10.9235 14.5312 3.56112 -2.65344
613 1 -9.3518 14.5638 5.31281 -3.04484
614 1 -7.18598 14.5133 3.18391 -3.3168
615 1 -5.4604 16.2481 3.20098 -2.99217
616 1 -5.42279 14.5868 5.15706 -3.45721
617 1 -7.28519 16.0615 5.10686 -2.76553
618 1 -3.7017 14.5148 3.24566 -3.47659
619 1 -2.07403 16.62 3.19501 -3.04036
620 1 -2.08191 14.5956 5.12469 -3.4697
621 1 -3.76054 16.4472 5.07749 -3.01748
622 1 -0.0200147 14.5539 3.3773 -3.46615
623 1 1.93823 16.3493 3.50643 -3.09326
624 1 1.80092 14.3827 5.11538 -3.50518
625 1 -0.151806 16.1403 5.23876 -3.07161
626 1 3.5913 14.5789 3.3164 -3.47127
627 1 5.3229 16.3443 3.2191 -3.00096
628 1 5.41441 14.4928 5.18792 -3.46181
629 1 3.80732 16.2924 5.14391 -3.004
630 1 7.1016 14.591 3.26046 -3.34359
631 1 9.16288 14.6918 5.03945 -3.08836
632 1 7.27852 16.2411 5.05426 -2.7307
633 1 10.9185 14.2563 3.24127 -2.69133
634 1 0.00246159 17.7506 3.67522 -2.44279
635 1 -5.42946 -16.4409 7.34205 -2.98736
636 1 -7.30495 -16.0826 8.97891 -2.78203
637 1 -1.7624 -16.3949 7.25338 -3.06858
638 1 -3.60789 -16.3299 8.95583 -3.04439
639 1 -0.0687236 -17.901 7.37531 -2.35727
640 1 1.94278 -16.4031 7.26559 -3.18602
641 1 0.0679996 -16.3634 9.07144 -3.18256
642 1 5.16786 -16.4529 7.14259 -2.96231
643 1 3.62662 -16.4575 9.1051 -3.04674
644 1 6.9978 -16.3998 9.02941 -2.74933
645 1 -12.5957 -12.7468 7.20175 -2.84491
646 1 -10.9315 -14.7158 7.06307 -2.68314
647 1 -9.13274 -12.9365 7.14857 -3.45576
648 1 -9.30639 -14.7199 8.93979 -3.07316
649 1 -10.9178 -12.8105 8.82973 -3.30695
650 1 -7.34523 -14.5346 7.15745 -3.30771
651 1 -5.49244 -12.803 7.09888 -3.49527
652 1 -5.46533 -14.4334 8.8597 -3.46983
653 1 -7.34888 -12.8469 8.93727 -3.46611
654 1 -3.51196 -14.7454 7.14233 -3.41421
655 1 -1.64024 -12.7323 7.13129 -3.47348
656 1 -1.7006 -14.5244 8.98048 -3.4922
657 1 -3.51094 -12.879 8.87654 -3.52377
658 1 0.0114048 -14.5906 7.09384 -3.53282
659 1 2.00729 -12.9097 7.10394 -3.48782
660 1 1.89312 -14.5043 8.97458 -3.49037
661 1 0.16546 -12.7311 8.95227 -3.54475
662 1 3.69549 -14.6434 7.14944 -3.43143
663 1 5.33389 -12.708 7.22704 -3.47731
664 1 5.38007 -14.585 9.09686 -3.46658
665 1 3.64295 -12.6415 8.99925 -3.49028
666 1 7.10354 -14.6695 7.12409 -3.3827
667 1 9.06983 -12.8303 6.98761 -3.46426
668 1 8.96721 -14.7436 8.80802 -3.13841
669 1 7.21818 -12.8851 8.8233 -3.51168
670 1 10.9714 -14.4635 7.09099 -2.71317
671 1 12.7048 -12.6955 7.06696 -2.87202
672 1 10.7523 -12.8027 8.80985 -3.31506
673 1 -14.3712 -10.6912 7.07496 -2.70666
674 1 -12.5303 -9.0226 7.28725 -3.451
675 1 -12.7888 -10.9807 8.99574 -3.32246
676 1 -14.4976 -9.25323 9.1041 -3.06687
677 1 -10.7484 -11.0993 7.04602 -3.43987
678 1 -9.07236 -9.31676 7.18827 -3.42053
679 1 -8.98387 -11.0696 8.89474 -3.47746
680 1 -10.7985 -9.15149 8.95181 -3.46813
681 1 -7.35109 -11.1193 6.9986 -3.47761
682 1 -5.28676 -9.17418 6.92262 -3.4707
683 1 -5.43736 -11.0477 8.88243 -3.55296
684 1 -7.28137 -9.14959 8.655 -3.48408
685 1 -3.59672 -11.0312 7.15781 -3.49265
686 1 -1.78006 -9.11681 7.14037 -3.50305
687 1 -1.75557 -10.8385 8.87513 -3.51252
688 1 -3.62383 -9.15089 8.80987 -3.49506
689 1 0.0896081 -10.9314 7.15158 -3.51437
690 1 1.75356 -9.10998 7.05878 -3.4852
691 1 1.93402 -10.9305 9.02797 -3.48381
692 1 0.0213934 -9.14065 8.98408 -3.49882
693 1 3.55677 -10.7655 7.20528 -3.50578
694 1 5.56689 -9.01912 6.99604 -3.52138
695 1 5.5544 -10.9048 8.81307 -3.50594
696 1 3.73674 -8.9833 8.87097 -3.48332
697 1 7.39448 -10.7402 7.23347 -3.45285
698 1 9.12814 -8.98266 7.10192 -3.50445
699 1 9.1285 -11.029 8.82069 -3.47486
700 1 7.25946 -9.0888 9.0699 -3.4515
701 1 10.9929 -10.9963 6.99174 -3.49257
702 1 12.5651 -9.09199 7.00178 -3.48119
703 1 12.7063 -10.8491 8.8347 -3.3362
704 1 10.8853 -9.13057 9.04046 -3.5124
705 1 14.3603 -10.9345 7.02777 -2.73767
706 1 14.3592 -9.03936 8.86056 -3.15518
707 1 -16.1197 -5.45445 7.17144 -2.97329
708 1 -16.0807 -7.13913 8.95651 -2.73653
709 1 -14.4079 -7.17437 7.24186 -3.3342
710 1 -12.5808 -5.4251 7.26369 -3.4979
711 1 -12.5647 -7.25112 8.8575 -3.46979
712 1 -14.4313 -5.36601 8.93921 -3.4102
713 1 -10.7543 -7.23663 7.09347 -3.50168
714 1 -9.06362 -5.37541 6.947 -3.50376
715 1 -9.01578 -7.27671 8.88579 -3.50813
716 1 -10.6069 -5.32945 8.88497 -3.51368
717 1 -7.20544 -7.29951 7.03481 -3.50868
718 1 -5.34533 -5.3446 7.12336 -3.50148
719 1 -5.42943 -7.43653 8.86239 -3.52846
720 1 -7.30163 -5.48604 8.79983 -3.51253
721 1 -3.49267 -7.38449 7.09044 -3.47552
722 1 -1.83408 -5.36828 7.16669 -3.41483
723 1 -1.77727 -7.31633 8.90986 -3.50383
724 1 -3.58635 -5.51321 9.04475 -3.53675
725 1 0.0343809 -7.37222 7.163 -3.51315
726 1 1.90839 -5.47116 7.1472 -3.46855
727 1 1.96309 -7.20732 8.92184 -3.52098
728 1 -0.136907 -5.467 8.70531 -3.44194
729 1 3.68326 -7.34156 6.98757 -3.54462
730 1 5.45887 -5.56617 7.04371 -3.50862
731 1 5.4934 -7.27052 8.86227 -3.49504
732 1 3.72925 -5.36109 8.94199 -3.458
733 1 7.31748 -7.25664 7.13062 -3.53008
734 1 9.14017 -5.40666 7.03246 -3.51635
735 1 9.16802 -7.3112 8.88231 -3.51751
736 1 7.46532 -5.45147 8.862 -3.4973
737 1 10.924 -7.14187 6.98785 -3.44417
738 1 12.629 -5.38576 7.09373 -3.52749
739 1 12.582 -7.28471 8.8298 -3.52177
740 1 10.9283 -5.42378 8.99295 -3.52466
741 1 14.5106 -7.28061 7.06065 -3.35585
742 1 16.1215 -5.48143 7.24292 -3.01498
743 1 16.1738 -7.28987 8.96605 -2.71683
744 1 14.3631 -5.49359 9.11152 -3.46271
745 1 -16.2774 -1.72498 7.04076 -3.12314