ITEM: TIMESTEP
116000
ITEM: NUMBER OF ATOMS
3804
ITEM: BOX BOUNDS ss ss pp
-1.8259799060931169e+01 1.8152433261107973e+01
-1.7608365208024750e+01 1.7519327225080929e+01
-2.5160399999999998e+00 4.5896039999999999e+01
ITEM: ATOMS id type x y z c_peratom
1 1 -5.49374 -14.8939 -2.31167 -2.94405
2 1 -6.72631 -14.9182 -0.262752 -2.71438
3 1 -2.22071 -14.7327 -2.05673 -3.17135
4 1 -3.99511 -15.1968 -0.218182 -2.98452
5 1 -0.352479 -16.2698 -2.37172 -2.55913
6 1 1.46943 -16.2769 44.3444 -2.86262
7 1 -0.43239 -14.8895 -0.140101 -3.24148
8 1 5.61252 -15.321 45.0828 -2.83748
9 1 3.85762 -15.4192 -1.72175 -2.7827
10 1 7.60611 -13.7125 0.793215 -2.72363
11 1 -12.5963 -10.8911 -1.84479 -2.87059
12 1 -10.7577 -12.8484 -2.10709 -2.71929
13 1 -9.04851 -11.1016 -2.04625 -3.45059
14 1 -8.96881 -13.0437 -0.231322 -3.10264
15 1 -10.8645 -11.3542 -0.186419 -3.28174
16 1 -7.2455 -13.0618 -1.98575 -3.39687
17 1 -5.51438 -11.0973 -1.88096 -3.49487
18 1 -5.32681 -13.0651 -0.0700271 -3.37825
19 1 -7.18436 -11.244 -0.089231 -3.50911
20 1 -4.02416 -12.9484 -2.0362 -3.42966
21 1 -2.1066 -12.8535 44.5494 -3.45817
22 1 -2.35542 -13.1471 -0.0881584 -3.49176
23 1 -3.88852 -11.2355 0.0835226 -3.44718
24 1 -0.290853 -14.5435 44.4603 -3.31471
25 1 1.51215 -12.8921 44.6403 -3.49936
26 1 1.42499 -14.6142 -1.91772 -3.3669
27 1 -0.449106 -13.0352 -1.99888 -3.49578
28 1 3.17301 -14.5819 44.5158 -3.31611
29 1 5.12966 -12.8433 44.6386 -3.49781
30 1 5.91565 -13.6133 -1.32701 -3.18346
31 1 3.47152 -13.0266 -1.74177 -3.49673
32 1 7.50834 -13.711 45.2176 -3.10792
33 1 9.32375 -11.8079 45.4524 -3.26644
34 1 9.29284 -12.0379 0.952928 -3.06945
35 1 7.71746 -12.0562 -1.06453 -3.35227
36 1 10.8179 -12.0801 -0.928258 -2.7031
37 1 12.8101 -10.429 -0.93251 -2.77549
38 1 11.0898 -10.3136 1.1696 -3.33369
39 1 -14.3671 -9.18678 -1.85741 -2.71762
40 1 -12.6033 -7.48579 -1.79964 -3.47189
41 1 -12.5899 -9.35498 0.00741602 -3.29869
42 1 -14.2755 -7.60957 0.127033 -3.10239
43 1 -10.765 -9.22579 -2.03784 -3.45811
44 1 -9.06085 -7.48922 -1.78294 -3.49154
45 1 -9.09624 -9.59356 -0.0871762 -3.49714
46 1 -10.8125 -7.75414 0.146094 -3.49045
47 1 -7.27827 -9.29316 -1.88524 -3.52244
48 1 -5.43961 -9.27649 44.7149 -3.48076
49 1 -5.55912 -9.48745 0.152072 -3.41751
50 1 -7.14642 -7.84566 0.246489 -3.41123
51 1 -3.67023 -10.8917 44.5234 -3.4448
52 1 -1.93865 -9.27042 44.7129 -3.43729
53 1 -2.18357 -11.2221 -1.72029 -3.49759
54 1 -3.65121 -9.3325 -1.62124 -3.51229
55 1 -0.443819 -11.1375 44.7586 -3.47477
56 1 1.60071 -9.50146 44.8954 -3.47513
57 1 1.46209 -11.4303 -1.62313 -3.46711
58 1 -0.22911 -9.67642 -1.70066 -3.50066
59 1 3.36667 -11.1897 44.8696 -3.47167
60 1 5.18567 -9.46091 45.0528 -3.53276
61 1 5.27276 -11.319 -1.71713 -3.44651
62 1 3.30187 -9.73078 -1.56538 -3.50873
63 1 6.95842 -11.0817 44.7309 -3.47141
64 1 8.82219 -9.37472 45.1032 -3.4748
65 1 9.40654 -10.1259 -0.839504 -3.45227
66 1 7.08421 -9.69766 -1.4964 -3.48512
67 1 11.2023 -10.0402 45.6958 -3.32261
68 1 13.0235 -8.35895 45.8 -3.29958
69 1 12.8996 -8.70357 1.24927 -3.2708
70 1 11.2428 -8.4481 -0.584105 -3.49464
71 1 14.4706 -8.42309 -0.730009 -2.74265
72 1 14.6055 -6.83724 1.3773 -3.13307
73 1 -16.086 -3.9564 -1.53136 -2.96017
74 1 -15.9241 -5.71206 0.0727533 -2.73727
75 1 -14.3867 -5.68596 -1.75476 -3.33623
76 1 -12.5329 -3.96794 -1.53442 -3.51128
77 1 -12.6216 -5.87833 0.145704 -3.48834
78 1 -14.1809 -3.92675 0.330426 -3.40896
79 1 -10.8754 -5.77383 -1.53588 -3.47523
80 1 -9.02428 -5.56851 44.8774 -3.50814
81 1 -8.98848 -5.98962 0.287055 -3.49389
82 1 -10.6842 -4.08985 0.324004 -3.49087
83 1 -7.32566 -7.42704 44.7265 -3.52399
84 1 -5.41268 -5.74268 44.8976 -3.47281
85 1 -5.49694 -7.52145 -1.53688 -3.43951
86 1 -7.24072 -5.83321 -1.4284 -3.47817
87 1 -3.78082 -7.46314 44.8681 -3.46528
88 1 -1.82776 -5.84853 45.2387 -3.5079
89 1 -1.7442 -7.7447 -1.42219 -3.48161
90 1 -3.68589 -5.98069 -1.45873 -3.49968
91 1 0.0715767 -7.55929 45.0345 -3.52067
92 1 1.76002 -5.80754 45.1409 -3.50386
93 1 1.62123 -7.84147 -1.44577 -3.50896
94 1 -0.0815328 -5.87197 -1.47356 -3.49366
95 1 3.19668 -7.78668 45.0888 -3.47581
96 1 5.12265 -6.09318 45.1943 -3.50245
97 1 5.15167 -7.73223 -1.43145 -3.50259
98 1 3.34679 -5.95471 -1.26565 -3.46616
99 1 7.00845 -7.63537 45.1173 -3.51622
100 1 8.93037 -5.8819 45.2803 -3.4778
101 1 8.77443 -7.80517 -1.4764 -3.45295
102 1 7.09973 -5.96775 -1.26479 -3.51089
103 1 10.519 -7.57275 45.0573 -3.43081
104 1 12.2587 -5.9341 45.3712 -3.5248
105 1 12.9324 -6.43686 -0.712015 -3.39155
106 1 10.5111 -6.1729 -1.14365 -3.47403
107 1 14.755 -6.62475 -2.44921 -3.18277
108 1 16.4551 -4.88405 -2.14706 -2.82678
109 1 16.4718 -4.94442 1.60795 -2.69244
110 1 14.7285 -4.87848 -0.386624 -3.34306
111 1 -16.0477 -0.203991 -1.24244 -3.02727
112 1 -16.154 -2.2039 0.42701 -3.01788
113 1 -14.4176 -2.12323 -1.31135 -3.46404
114 1 -12.4643 -2.10445 45.1417 -3.47763
115 1 -12.4697 -2.31236 0.344867 -3.45736
116 1 -14.2163 -0.422651 0.63647 -3.49064
117 1 -10.7328 -3.77308 44.98 -3.46698
118 1 -9.01177 -2.06633 45.0463 -3.48634
119 1 -8.99518 -4.00332 -1.48934 -3.51513
120 1 -10.7749 -2.15575 -1.40489 -3.50242
121 1 -7.05509 -3.87066 45.0108 -3.49362
122 1 -5.33551 -2.2457 45.1617 -3.46305
123 1 -5.32926 -4.17181 -1.27636 -3.48672
124 1 -7.15033 -2.37719 -1.29259 -3.52138
125 1 -3.63661 -4.02113 45.1799 -3.49223
126 1 -1.88692 -2.28542 45.2114 -3.45575
127 1 -1.83213 -4.18549 -1.3414 -3.53569
128 1 -3.63232 -2.43499 -1.29868 -3.45109
129 1 0.00506403 -3.98557 45.2188 -3.53398
130 1 1.83364 -2.32466 45.2132 -3.41659
131 1 1.62435 -4.0445 -1.35259 -3.49216
132 1 -0.02393 -2.34251 -1.18971 -3.47478
133 1 3.51293 -3.983 45.2712 -3.4981
134 1 5.31865 -2.39144 45.4173 -3.50499
135 1 5.24565 -4.37001 -1.08267 -3.49014
136 1 3.60172 -2.38285 -1.0591 -3.524
137 1 6.97505 -4.27653 45.2612 -3.49734
138 1 8.74388 -2.44258 45.4244 -3.47817
139 1 8.84456 -4.20103 -1.1493 -3.51198
140 1 7.00712 -2.41733 -1.11726 -3.53335
141 1 10.5916 -4.11145 45.4018 -3.49159
142 1 12.4469 -2.54303 45.6007 -3.48584
143 1 12.282 -4.21319 -1.02738 -3.45545
144 1 10.5073 -2.47981 -0.867989 -3.43273
145 1 14.2517 -4.20506 45.4923 -3.51062
146 1 15.9288 -2.37691 45.7956 -3.19927
147 1 16.4846 -3.19427 -0.233098 -3.00823
148 1 14.0726 -2.51277 -0.787555 -3.48725
149 1 -18.0799 2.38561 40.6557 -2.65683
150 1 -16.0088 1.39126 45.2182 -3.12919
151 1 -15.9391 1.26295 0.714954 -3.1174
152 1 -14.1447 -0.34335 45.1608 -3.47592
153 1 -12.2987 1.39739 45.2491 -3.47079
154 1 -12.4089 -0.343181 -1.48007 -3.4396
155 1 -14.0153 1.39497 -1.24946 -3.47456
156 1 -10.5854 -0.285451 45.281 -3.48493
157 1 -8.72918 1.36506 45.337 -3.41164
158 1 -8.76624 -0.503871 -1.21565 -3.5107
159 1 -10.5219 1.3041 -1.17744 -3.5077
160 1 -7.04602 -0.467201 45.2879 -3.53135
161 1 -5.22574 1.28142 45.3471 -3.51767
162 1 -5.25935 -0.578826 -1.13539 -3.52734
163 1 -7.02038 1.15633 -1.19663 -3.47873
164 1 -3.53031 -0.476664 45.3817 -3.51597
165 1 -1.66806 1.33574 45.3112 -3.47467
166 1 -1.95258 -0.80246 -1.13911 -3.43426
167 1 -3.40913 1.18163 -1.13548 -3.51
168 1 -0.0741266 -0.748803 45.3405 -3.49634
169 1 1.73803 1.15633 45.6286 -3.51795
170 1 1.7561 -0.701789 -1.10778 -3.4947
171 1 -0.209738 0.925872 -0.995467 -3.54101
172 1 3.47952 -0.697445 45.5721 -3.46109
173 1 5.35358 1.25284 45.6079 -3.48304
174 1 5.31658 -0.652756 -0.786964 -3.47293
175 1 3.51714 1.05026 -0.912134 -3.50175
176 1 7.17436 -0.537028 45.5851 -3.5107
177 1 8.96428 1.38347 45.6608 -3.47256
178 1 8.91954 -0.699055 -0.949601 -3.46778
179 1 7.25939 1.12562 -0.976146 -3.49482
180 1 10.5842 -0.794571 45.5964 -3.51985
181 1 12.3688 1.07524 45.8255 -3.53234
182 1 12.3751 -0.709412 -0.801208 -3.51867
183 1 10.5185 1.1465 -0.749779 -3.50763
184 1 14.2234 -0.70512 45.7946 -3.5112
185 1 15.9321 1.32231 45.5046 -3.14619
186 1 15.9395 -0.843505 -0.640163 -3.26163
187 1 14.2799 1.16647 -0.758545 -3.54081
188 1 17.538 -0.620631 45.8886 -2.54418
189 1 -15.9778 4.80288 45.5293 -2.96245
190 1 -15.8982 3.02191 -1.11496 -3.0574
191 1 -14.0832 3.12583 45.2651 -3.46241
192 1 -12.2306 4.83907 45.5691 -3.51952
193 1 -12.2146 3.05635 -1.07488 -3.50375
194 1 -14.1177 4.78575 -1.08668 -3.48281
195 1 -10.4977 3.06367 45.3586 -3.50512
196 1 -8.65027 4.92456 45.5504 -3.50322
197 1 -8.75969 2.91401 -1.00615 -3.50669
198 1 -10.445 4.82233 -0.82225 -3.50609
199 1 -7.20503 2.99989 45.4012 -3.38218
200 1 -5.14846 4.82229 45.7004 -3.53068
201 1 -5.32788 2.93281 -0.903966 -3.52114
202 1 -6.99412 4.74822 -0.854204 -3.50844
203 1 -3.46225 2.98031 45.5933 -3.48573
204 1 -1.69945 4.78134 45.7998 -3.55448
205 1 -1.67919 2.86047 -0.899973 -3.49363
206 1 -3.47303 4.72794 -0.71933 -3.52324
207 1 0.126659 2.97615 45.7164 -3.4802
208 1 1.69807 4.82009 45.9852 -3.51203
209 1 1.73811 2.82393 -0.764398 -3.52272
210 1 0.0309651 4.61126 -0.568755 -3.46334
211 1 3.54265 2.91834 45.8074 -3.51288
212 1 5.24107 4.81339 45.9158 -3.51565
213 1 5.27622 2.81821 -0.765496 -3.53919
214 1 3.47268 4.67483 -0.600527 -3.52871
215 1 7.07989 3.03936 -2.5496 -3.50045
216 1 8.86639 4.75996 45.8582 -3.51504
217 1 8.85406 2.94754 -0.723268 -3.48167
218 1 7.05381 4.71677 -0.565115 -3.50849
219 1 10.6954 3.14617 -2.55052 -3.48254
220 1 12.5391 4.87424 -2.44813 -3.50021
221 1 12.4143 2.88071 -0.687479 -3.52353
222 1 10.5997 4.60483 -0.556881 -3.50507
223 1 14.2025 2.86249 45.8171 -3.43594
224 1 16.0501 4.74125 -2.28912 -2.95075
225 1 15.949 3.01174 -0.455498 -3.10308
226 1 14.147 4.64599 -0.609977 -3.41424
227 1 -15.8639 6.45477 -1.08953 -2.84878
228 1 -13.9681 6.77636 45.6846 -3.38915
229 1 -12.1018 8.31192 45.721 -3.45315
230 1 -12.2465 6.5393 -0.727718 -3.50232
231 1 -14.0264 8.28065 -0.741023 -3.11439
232 1 -10.4497 6.6135 45.837 -3.47861
233 1 -8.7431 8.43743 45.9083 -3.51806
234 1 -8.71639 6.59993 -0.744501 -3.52103
235 1 -10.5492 8.29171 -0.644876 -3.46823
236 1 -6.89312 6.72171 45.8662 -3.46751
237 1 -5.1957 8.3698 45.8947 -3.47006
238 1 -5.29867 6.43078 -0.602598 -3.4309
239 1 -6.81845 8.34075 -0.697517 -3.46543
240 1 -3.42441 6.5833 45.8566 -3.52069
241 1 -1.63986 8.24269 -2.5412 -3.43718
242 1 -1.75924 6.42619 -0.56296 -3.48764
243 1 -3.63645 8.1246 -0.535435 -3.49081
244 1 0.00101006 6.58604 45.9362 -3.46016
245 1 1.67146 8.37727 -2.43794 -3.48336
246 1 1.90472 6.51933 -0.530859 -3.48831
247 1 -0.0910295 8.16793 -0.574744 -3.45856
248 1 3.50079 6.64813 -2.36182 -3.51602
249 1 5.3197 8.38352 -2.34723 -3.47726
250 1 5.29141 6.60937 -0.450024 -3.50751
251 1 3.4872 8.32166 -0.477309 -3.47027
252 1 6.98261 6.49545 -2.30537 -3.50046
253 1 9.00722 8.4195 -2.1769 -3.46608
254 1 8.84773 6.42154 -0.426762 -3.50395
255 1 7.15162 8.25518 -0.421845 -3.53123
256 1 10.6608 6.62028 -2.14138 -3.48973
257 1 12.4655 8.30291 -2.00158 -3.44328
258 1 12.361 6.45354 -0.296457 -3.49394
259 1 10.5966 8.16307 -0.237295 -3.47475
260 1 14.2676 6.60786 -2.30134 -3.39187
261 1 15.9365 6.15562 -0.413419 -2.72131
262 1 14.232 8.06127 0.0222512 -3.09139
263 1 -14.4849 9.10059 45.1314 -2.85026
264 1 -12.7547 10.7892 45.2407 -2.86512
265 1 -12.41 9.97139 -0.699295 -3.24064
266 1 -10.3894 10.2182 -2.62449 -3.46134
267 1 -8.7082 12.0342 -2.3498 -3.30757
268 1 -8.86617 10.0974 -0.515411 -3.50593
269 1 -10.6753 11.9905 -0.656695 -3.18693
270 1 -6.93155 10.3775 -2.31114 -3.49978
271 1 -5.13966 12.1795 -2.4969 -3.43769
272 1 -5.19761 10.1142 -0.467997 -3.47366
273 1 -6.91115 11.9519 -0.515153 -3.45849
274 1 -3.28377 9.99395 -2.32581 -3.49422
275 1 -1.59546 11.9189 -2.33375 -3.50561
276 1 -1.5499 10.0436 -0.501411 -3.48505
277 1 -3.44777 12.0108 -0.514601 -3.51522
278 1 0.0285786 10.0886 -2.51574 -3.49089
279 1 1.84364 11.8684 -2.19623 -3.53096
280 1 1.72532 10.02 -0.467461 -3.50131
281 1 0.0799196 11.7987 -0.29952 -3.44782
282 1 3.55834 9.96827 -2.36915 -3.48103
283 1 5.56023 11.8904 -2.19799 -3.50005
284 1 5.29276 9.95314 -0.234121 -3.48262
285 1 3.56701 11.6954 -0.284887 -3.52942
286 1 7.17629 10.1626 -2.23185 -3.46364
287 1 8.85681 11.8378 -1.8878 -3.418
288 1 9.00903 10.0397 -0.262624 -3.47551
289 1 7.09616 11.6777 -0.0327373 -3.49379
290 1 10.6864 10.1086 -2.01537 -3.49433
291 1 12.867 11.571 -1.79205 -2.78535
292 1 12.6296 9.83686 -0.0749706 -3.32429
293 1 10.9397 11.721 0.0137546 -3.2841
294 1 14.4255 9.62474 -2.04832 -2.7436
295 1 -10.9681 12.5742 45.1972 -2.75723
296 1 -8.88452 13.6417 -0.485291 -2.99516
297 1 -7.04242 13.6844 -2.39586 -3.25409
298 1 -5.37245 15.5553 -2.34783 -2.85747
299 1 -5.2677 13.6281 -0.488317 -3.41169
300 1 -7.10181 15.337 -0.459099 -2.6706
301 1 -3.53839 13.9795 -2.28902 -3.41212
302 1 -1.68737 15.7486 -2.01618 -3.11701
303 1 -1.58343 13.6434 -0.465257 -3.5055
304 1 -3.60042 15.5106 -0.304493 -2.99832
305 1 0.118573 13.7374 -2.24486 -3.45585
306 1 2.0485 15.6695 -2.07156 -3.13033
307 1 1.68439 13.6716 -0.381562 -3.45227
308 1 0.233397 15.5171 -0.207592 -3.21753
309 1 3.59657 13.6675 -2.01883 -3.44077
310 1 5.35667 15.2749 -1.78344 -2.97819
311 1 5.39573 13.5252 -0.108864 -3.43325
312 1 3.61108 15.3443 -0.0355697 -3.03947
313 1 7.25659 13.6691 -1.88941 -3.33781
314 1 8.98049 13.4278 0.0938163 -3.13902
315 1 7.15599 15.2181 0.200701 -2.71645
316 1 10.8132 13.3803 -1.8488 -2.70265
317 1 0.100156 17.3407 -1.78943 -2.29988
318 1 -5.42097 -14.808 1.82821 -2.99039
319 1 -7.01144 -14.9896 3.80328 -2.70374
320 1 -2.1059 -14.9068 1.6691 -2.97534
321 1 -3.61909 -14.9269 3.73988 -2.87528
322 1 2.08893 -15.2273 0.520585 -2.93341
323 1 4.01094 -15.6057 2.54092 -2.47628
324 1 0.230897 -15.6053 2.24732 -2.68388
325 1 5.77315 -13.9224 2.61574 -3.08539
326 1 3.90163 -14.1211 4.5773 -3.14092
327 1 7.32432 -14.1479 4.58491 -2.69243
328 1 -12.5825 -11.1907 1.91286 -2.83665
329 1 -10.7824 -12.9345 1.67888 -2.69784
330 1 -9.07965 -11.3931 1.69126 -3.33978
331 1 -9.08786 -13.2815 3.38047 -3.0579
332 1 -10.8099 -11.5264 3.86535 -3.31206
333 1 -7.10957 -13.0827 1.71515 -3.35407
334 1 -5.41156 -11.4099 2.08877 -3.46715
335 1 -5.32015 -13.1691 3.92535 -3.33952
336 1 -7.29105 -11.7118 3.82642 -3.48803
337 1 -3.74209 -13.18 1.97226 -3.35853
338 1 -2.08832 -11.4451 2.23958 -3.48159
339 1 -1.87227 -13.422 4.16098 -3.32338
340 1 -3.69173 -11.5974 4.21233 -3.45514
341 1 -0.465376 -13.211 2.01566 -3.43758
342 1 1.27163 -13.0107 0.081481 -3.32251
343 1 2.07943 -14.089 2.58244 -3.22234
344 1 -0.215669 -11.5606 4.07154 -3.48287
345 1 4.1349 -13.9231 0.523523 -3.27851
346 1 5.78725 -12.0766 0.71825 -3.46175
347 1 5.58065 -12.2822 4.66641 -3.45563
348 1 3.78975 -12.4641 2.74199 -3.41096
349 1 7.51323 -12.2947 2.83051 -3.34662
350 1 9.34484 -10.374 3.05204 -3.44272
351 1 9.20683 -12.2208 4.79474 -3.09979
352 1 7.41685 -10.6578 4.7889 -3.45348
353 1 11.0659 -12.0318 2.95635 -2.72389
354 1 13.024 -10.4706 3.02875 -2.81479
355 1 11.1239 -10.542 4.94484 -3.30366
356 1 -14.1028 -9.23158 1.9983 -2.77687
357 1 -12.3777 -7.65272 2.08161 -3.40223
358 1 -12.4243 -9.40364 3.8807 -3.34017
359 1 -14.4444 -7.78727 4.01434 -3.13084
360 1 -10.7097 -9.73082 2.10929 -3.43741
361 1 -9.03454 -7.81916 2.23509 -3.50614
362 1 -8.96517 -9.82267 3.98733 -3.52033
363 1 -10.7038 -7.81074 4.10444 -3.4723
364 1 -7.24622 -9.82319 2.06968 -3.49751
365 1 -5.59939 -8.01791 2.38754 -3.50836
366 1 -5.60451 -9.90926 4.16726 -3.54631
367 1 -7.28966 -8.04792 4.20052 -3.4975
368 1 -3.75134 -9.66173 2.21828 -3.48055
369 1 -1.86684 -9.54551 0.274266 -3.49291
370 1 -1.94644 -9.76765 4.18903 -3.47681
371 1 -3.72225 -8.10662 4.08993 -3.49032
372 1 -0.444953 -11.5038 0.173738 -3.44709
373 1 1.37195 -9.75454 0.303508 -3.52241
374 1 1.36934 -11.6116 2.06853 -3.43289
375 1 -0.177921 -9.80267 2.20516 -3.49442
376 1 3.25819 -11.5808 0.379917 -3.50121
377 1 5.19911 -9.68898 0.150536 -3.44142
378 1 5.66365 -10.5261 2.80821 -3.51455
379 1 3.12666 -9.93881 2.44949 -3.50421
380 1 7.66022 -10.376 0.882128 -3.44689
381 1 9.27895 -8.51767 1.22944 -3.4899
382 1 9.25064 -8.71821 4.90014 -3.54415
383 1 7.4925 -8.85119 2.87209 -3.46167
384 1 11.1693 -8.5912 3.03135 -3.50108
385 1 12.9854 -6.81549 3.36602 -3.38697
386 1 12.702 -8.7298 4.89882 -3.31574
387 1 11.1606 -6.92659 5.07426 -3.49618
388 1 14.6233 -8.5762 3.19864 -2.76486
389 1 14.5535 -7.01595 5.19941 -3.09721
390 1 -16.0034 -4.06586 2.24832 -3.00173
391 1 -16.1368 -5.97559 4.00808 -2.69775
392 1 -14.5146 -6.0775 2.05392 -3.33799
393 1 -12.6447 -4.36464 2.12212 -3.46987
394 1 -12.5034 -6.09961 4.15683 -3.4818
395 1 -14.295 -4.51413 4.04875 -3.41586
396 1 -10.8366 -5.95774 2.1174 -3.4659
397 1 -8.92078 -4.33942 2.44918 -3.45271
398 1 -8.9739 -6.13029 4.0581 -3.40848
399 1 -10.7096 -4.44671 4.21178 -3.47525
400 1 -7.26583 -6.12211 2.39783 -3.46031
401 1 -5.48171 -6.15429 0.502536 -3.48871
402 1 -5.37485 -6.28183 4.29449 -3.46024
403 1 -7.20031 -4.41804 4.3423 -3.53219
404 1 -3.67892 -7.83123 0.433601 -3.51823
405 1 -1.91802 -5.94437 0.543502 -3.5436
406 1 -1.84522 -7.97215 2.20407 -3.5263
407 1 -3.76284 -6.21776 2.41218 -3.51718
408 1 -0.0952155 -7.79244 0.34786 -3.46179
409 1 1.70763 -6.15396 0.436227 -3.4398
410 1 1.54896 -7.79954 2.24238 -3.45038
411 1 -0.110099 -6.01903 2.4286 -3.45499
412 1 3.40392 -8.05528 0.602871 -3.48942
413 1 5.08718 -6.23661 0.535134 -3.49098
414 1 5.17465 -8.11085 2.48551 -3.47715
415 1 3.45737 -6.40173 2.57757 -3.45083
416 1 7.03639 -8.01885 0.467817 -3.49863
417 1 8.87069 -6.09905 0.646207 -3.47749
418 1 9.41395 -6.79751 2.99271 -3.49264
419 1 6.89705 -6.32696 2.35231 -3.53824
420 1 11.2519 -6.78861 1.28854 -3.51831
421 1 13.0183 -4.92348 1.38484 -3.47862
422 1 12.9943 -5.17373 5.2397 -3.48112
423 1 11.0847 -5.02704 3.23144 -3.52384
424 1 14.8812 -5.37311 3.34231 -3.27452
425 1 16.4062 -3.32102 3.35394 -2.99885
426 1 16.4468 -5.16346 5.38127 -2.68712
427 1 14.6982 -3.42326 5.29523 -3.43594
428 1 -16.1885 -0.571037 2.41057 -3.1143
429 1 -16.1233 -2.46839 4.16626 -2.99955
430 1 -14.3326 -2.34024 2.33208 -3.44928
431 1 -12.5734 -0.673602 2.7488 -3.43717
432 1 -12.5346 -2.70539 4.1888 -3.48991
433 1 -14.5425 -0.580996 4.51683 -3.40887
434 1 -10.8086 -2.79533 2.36758 -3.45388
435 1 -9.05873 -2.34758 0.609211 -3.47659
436 1 -9.0601 -2.58104 4.33511 -3.54199
437 1 -10.9137 -0.833836 4.51936 -3.42184
438 1 -7.41442 -4.17652 0.530753 -3.48527
439 1 -5.5029 -2.48329 0.715045 -3.48884
440 1 -5.48721 -4.32129 2.31659 -3.52282
441 1 -7.21655 -2.39339 2.64726 -3.46554
442 1 -3.72175 -4.12453 0.515496 -3.46332
443 1 -1.72581 -2.57958 0.664176 -3.5301
444 1 -1.96946 -4.3523 2.40886 -3.49405
445 1 -3.61544 -2.57131 2.54622 -3.51581
446 1 0.075354 -4.38709 0.63419 -3.47086
447 1 1.66104 -2.52301 0.715614 -3.52778
448 1 1.67291 -4.37618 2.49304 -3.49735
449 1 -0.0853274 -2.60766 2.57941 -3.50586
450 1 3.49032 -4.36323 0.687919 -3.48442
451 1 5.29421 -2.65397 0.852584 -3.49052
452 1 5.0724 -4.56277 2.65835 -3.48115
453 1 3.48299 -2.7408 2.50404 -3.45542
454 1 6.9895 -4.3117 0.761563 -3.50154
455 1 8.80367 -2.53753 0.872203 -3.49228
456 1 8.61634 -4.40179 2.7532 -3.46957
457 1 7.022 -2.62167 2.76005 -3.48054
458 1 10.5693 -4.42761 0.833858 -3.49101
459 1 12.3114 -2.6793 0.894903 -3.48142
460 1 13.0105 -3.21125 3.34696 -3.49998
461 1 10.5958 -2.5736 3.03005 -3.48473
462 1 14.7765 -3.19722 1.53695 -3.43036
463 1 16.6669 -1.32931 1.69616 -2.99292
464 1 16.5771 -1.82613 5.45651 -2.98618
465 1 14.6915 -1.44516 3.53411 -3.45844
466 1 -17.7599 1.24546 2.30127 -2.42175
467 1 -15.9537 3.01291 2.46123 -3.23833
468 1 -16.2254 1.16599 4.58766 -3.13729
469 1 -14.1949 1.20807 2.64483 -3.52165
470 1 -12.3494 1.24193 0.774901 -3.50124
471 1 -12.4723 1.03272 4.59111 -3.50056
472 1 -14.3799 2.77659 4.62461 -3.5043
473 1 -10.7154 -0.564276 0.596386 -3.48209
474 1 -8.88683 1.06893 0.846558 -3.47369
475 1 -8.95267 -0.745929 2.48539 -3.47941
476 1 -10.7516 1.05695 2.75852 -3.50616
477 1 -7.16665 -0.619182 0.628274 -3.50651
478 1 -5.29981 1.04384 0.866526 -3.5113
479 1 -5.39816 -0.792942 2.59131 -3.48903
480 1 -7.18095 1.03895 2.69968 -3.53219
481 1 -3.62707 -0.686452 0.66165 -3.48066
482 1 -1.84492 0.86082 0.926711 -3.46114
483 1 -1.82986 -0.920357 2.75905 -3.46047
484 1 -3.57917 0.803189 2.8025 -3.50644
485 1 -0.155833 -0.756867 0.912129 -3.44385
486 1 1.56795 0.994344 0.984826 -3.50186
487 1 1.66558 -0.887328 2.79303 -3.51399
488 1 -0.0688996 0.797812 2.95047 -3.51442
489 1 3.43976 -0.718178 0.918898 -3.53093
490 1 5.37226 0.907928 1.11074 -3.45447
491 1 5.20191 -0.88823 2.7709 -3.53775
492 1 3.34963 0.926085 2.90405 -3.48901
493 1 7.11294 -0.737602 0.950063 -3.50773
494 1 8.76527 1.12954 1.0587 -3.51152
495 1 8.71629 -0.891218 3.01706 -3.49474
496 1 6.94376 0.957044 2.93692 -3.50972
497 1 10.4954 -0.791376 0.976322 -3.49384
498 1 12.3142 0.985544 0.946611 -3.47952
499 1 12.3258 -0.865661 2.85618 -3.47734
500 1 10.5727 0.808454 2.89608 -3.4835
501 1 14.2467 -0.773274 1.11074 -3.52154
502 1 16.0632 1.01525 1.25167 -3.19635
503 1 16.5077 0.12142 3.93419 -2.97957
504 1 14.2582 0.960572 2.93463 -3.45018
505 1 17.3607 1.08525 -0.84286 -2.59722
506 1 -15.9002 4.73814 0.669917 -2.99353
507 1 -15.8613 4.68537 4.661 -3.06949
508 1 -14.1002 2.97028 0.802893 -3.46554
509 1 -12.3475 4.59996 0.879827 -3.51449
510 1 -12.4002 2.97254 2.75665 -3.5215
511 1 -14.163 4.7073 2.75197 -3.4468
512 1 -10.5427 2.87639 0.9755 -3.49333
513 1 -8.81509 4.66261 1.0874 -3.51294
514 1 -9.00516 2.8564 2.85567 -3.49685
515 1 -10.634 4.69176 2.93289 -3.49495
516 1 -7.13313 2.79639 0.889555 -3.52454
517 1 -5.32002 4.5815 1.08593 -3.49732
518 1 -5.37157 2.76238 2.87673 -3.49715
519 1 -6.94634 4.51004 2.8867 -3.46621
520 1 -3.48235 2.77578 0.991958 -3.55431
521 1 -1.68407 4.60707 1.1065 -3.49036
522 1 -1.78496 2.62375 2.90535 -3.5143
523 1 -3.44157 4.5049 3.04385 -3.53321
524 1 -0.0969752 2.68708 1.04404 -3.49094
525 1 1.60747 4.55158 1.2151 -3.50218
526 1 1.62449 2.58329 3.13522 -3.49733
527 1 -0.116654 4.48293 2.97392 -3.52876
528 1 3.51453 2.73388 1.0544 -3.5325
529 1 5.28019 4.48124 1.25655 -3.50076
530 1 5.08159 2.60379 3.00135 -3.42972
531 1 3.46976 4.37026 3.04803 -3.51471
532 1 7.02509 2.80886 1.25342 -3.48571
533 1 8.79239 4.63512 1.37551 -3.49559
534 1 8.92554 2.61113 3.2469 -3.48475
535 1 6.88459 4.3627 3.20341 -3.50752
536 1 10.6564 2.86837 1.25919 -3.50473
537 1 12.4165 4.62053 1.34824 -3.51807
538 1 12.2522 2.64936 3.03175 -3.46844
539 1 10.7863 4.53208 3.30662 -3.49522
540 1 14.0862 2.62595 1.23035 -3.43881
541 1 15.6668 4.47197 1.46882 -3.03421
542 1 15.9411 2.6273 3.19137 -3.13249
543 1 13.9949 4.33553 3.42734 -3.43094
544 1 -15.9244 6.29112 2.9509 -2.67337
545 1 -14.2519 6.51351 0.844752 -3.33265
546 1 -12.3215 8.17203 1.09315 -3.40918
547 1 -12.4194 6.37913 2.83965 -3.47553
548 1 -14.0611 8.05381 2.77197 -3.08073
549 1 -10.5352 6.4419 1.11677 -3.51917
550 1 -8.86462 8.32541 1.11724 -3.51362
551 1 -8.74494 6.33771 3.0066 -3.52947
552 1 -10.5119 8.16022 3.13604 -3.51335
553 1 -7.06189 6.40073 1.14163 -3.5211
554 1 -5.32537 8.21857 1.18326 -3.46058
555 1 -5.39181 6.38686 3.02759 -3.49479
556 1 -7.07282 8.20891 3.03053 -3.51608
557 1 -3.62665 6.33427 1.22697 -3.50328
558 1 -1.66567 8.16392 1.33085 -3.50086
559 1 -1.86551 6.39403 3.11508 -3.50691
560 1 -3.5896 8.05979 2.98689 -3.47415
561 1 0.0623629 6.44214 1.26348 -3.49033
562 1 1.81707 8.09072 1.41643 -3.48041
563 1 1.74344 6.12303 3.12643 -3.46938
564 1 0.0280933 7.99353 3.28522 -3.50737
565 1 3.48831 6.39862 1.48622 -3.4761
566 1 5.24667 8.15106 1.40815 -3.50033
567 1 5.26744 6.4305 3.22568 -3.43899
568 1 3.51524 8.00802 3.34578 -3.48697
569 1 7.0415 6.29172 1.30959 -3.48368
570 1 8.84282 8.17298 1.52431 -3.53035
571 1 8.68853 6.26292 3.33308 -3.50651
572 1 6.97039 8.095 3.4511 -3.46744
573 1 10.6568 6.25714 1.58499 -3.4698
574 1 12.4387 7.94412 1.78327 -3.46506
575 1 12.7202 6.27605 3.6957 -3.433
576 1 10.6105 7.91379 3.59453 -3.50965
577 1 14.3246 6.39327 1.68561 -3.26042
578 1 15.8585 5.96767 3.50972 -2.75797
579 1 14.4194 7.96735 3.72049 -3.02746
580 1 -13.913 9.98124 1.30289 -2.73315
581 1 -12.3163 11.965 1.09291 -2.7445
582 1 -12.2066 9.95869 3.10388 -3.30003
583 1 -10.6611 10.1117 1.33757 -3.48128
584 1 -8.80736 11.7189 1.39782 -3.45114
585 1 -8.79899 9.92623 3.24052 -3.5258
586 1 -10.6015 11.8519 3.3006 -3.29204
587 1 -6.98418 10.0507 1.2782 -3.49456
588 1 -5.21962 11.8462 1.36187 -3.47207
589 1 -5.31636 10.2365 3.09541 -3.42272
590 1 -7.00819 11.8068 3.32876 -3.43657
591 1 -3.44787 9.97901 1.3258 -3.53268
592 1 -1.69249 11.8007 1.47228 -3.50497
593 1 -1.73996 9.74173 3.25148 -3.49873
594 1 -3.37167 11.6017 3.2521 -3.49528
595 1 0.15588 9.90369 1.3922 -3.50741
596 1 1.69252 11.8808 1.56263 -3.51385
597 1 1.65169 9.83092 3.45595 -3.50133
598 1 -0.126107 11.5148 3.31673 -3.47226
599 1 3.47366 9.98212 1.5525 -3.51362
600 1 5.33816 11.6398 1.71186 -3.4996
601 1 5.30014 9.81621 3.58591 -3.48342
602 1 3.46828 11.5148 3.38698 -3.48564
603 1 7.14933 9.98122 1.75527 -3.44931
604 1 8.90943 11.5758 1.99502 -3.42088
605 1 8.79455 9.73951 3.69351 -3.49183
606 1 7.15843 11.5738 3.59718 -3.47038
607 1 10.7581 9.81129 1.67416 -3.51321
608 1 12.6251 11.5001 1.94925 -2.83626
609 1 12.4293 9.50241 3.72218 -3.33333
610 1 10.7697 11.3354 3.77819 -3.34342
611 1 14.283 9.67377 1.95663 -2.75243
612 1 -10.3974 13.4353 1.58185 -2.74854
613 1 -8.68964 13.6596 3.37632 -3.09995
614 1 -7.28593 13.7915 1.43225 -3.32418
615 1 -5.08206 15.3216 1.57105 -2.95556
616 1 -5.3025 13.5079 3.30542 -3.46493
617 1 -6.87047 15.3268 3.45488 -2.73339
618 1 -3.51557 13.6021 1.48647 -3.42565
619 1 -1.78031 15.6839 1.35151 -3.09064
620 1 -1.52722 13.5506 3.37135 -3.39555
621 1 -3.29201 15.2414 3.33949 -3.04187
622 1 -0.0271793 13.818 1.57072 -3.44781
623 1 1.88463 15.4345 1.79684 -3.06427
624 1 1.67806 13.3481 3.60313 -3.47735
625 1 0.0980714 15.3462 3.44969 -3.18685
626 1 3.60398 13.491 1.54743 -3.45841
627 1 5.25597 15.3494 1.83679 -2.96456
628 1 5.23642 13.322 3.73165 -3.42975
629 1 3.62703 15.0987 3.71382 -3.02713
630 1 7.12571 13.389 1.76779 -3.32498
631 1 8.97599 13.2964 3.94603 -3.06296
632 1 6.96605 14.9769 3.57801 -2.70805
633 1 10.8482 13.2154 1.85343 -2.64814
634 1 0.324939 17.0792 1.69794 -2.35109
635 1 -5.49269 -15.0835 5.71259 -2.80964
636 1 -7.25144 -15.0722 7.5074 -2.61809
637 1 -1.19611 -14.1728 6.52822 -2.99975
638 1 -3.03795 -14.2209 8.26608 -3.00079
639 1 0.470015 -14.1654 4.46384 -3.11535
640 1 2.10225 -14.2918 6.36688 -2.9863
641 1 0.571501 -14.3197 8.51853 -3.10052
642 1 5.64994 -14.1683 6.60583 -2.97445
643 1 4.00312 -14.0423 8.36308 -3.04822
644 1 7.38138 -14.1908 8.57719 -2.70609
645 1 -12.4673 -11.4553 5.58138 -2.83772
646 1 -10.5468 -13.4457 5.55803 -2.72947
647 1 -9.03131 -11.6959 5.92371 -3.32714
648 1 -9.29891 -13.6854 7.70772 -3.04639
649 1 -10.7727 -11.752 7.47959 -3.29267
650 1 -7.64937 -13.564 5.61548 -3.28234
651 1 -5.7407 -11.8762 5.86478 -3.4962
652 1 -5.42099 -13.5798 7.69699 -3.23485
653 1 -7.29246 -11.9475 7.74673 -3.53965
654 1 -3.72571 -13.6804 6.02571 -3.21874
655 1 -1.97624 -11.6598 6.03666 -3.49404
656 1 -1.19523 -12.425 8.36258 -3.44318
657 1 -3.81135 -11.7082 7.84841 -3.48609
658 1 0.425737 -12.4878 6.413 -3.43407
659 1 2.12482 -12.3395 4.3844 -3.45637
660 1 2.11358 -12.4012 8.32976 -3.44482
661 1 0.41436 -10.7617 8.54635 -3.4366
662 1 3.85071 -12.4191 6.47877 -3.46894
663 1 5.81906 -10.6829 6.74645 -3.51742
664 1 5.92585 -12.368 8.50157 -3.41692
665 1 3.96432 -10.7642 8.56516 -3.49275
666 1 7.55124 -12.5879 6.5106 -3.3312
667 1 9.31897 -10.6617 6.62665 -3.41004
668 1 9.28387 -12.5653 8.397 -3.12852
669 1 7.73042 -10.6377 8.54787 -3.45183
670 1 11.0054 -12.2765 6.61637 -2.72675
671 1 12.9154 -10.6115 6.8038 -2.85682
672 1 11.0335 -10.71 8.59813 -3.3784
673 1 -14.2865 -9.81285 5.66882 -2.7002
674 1 -12.6009 -7.93963 5.90286 -3.47451
675 1 -12.6121 -9.88437 7.68849 -3.35118
676 1 -14.4868 -8.1685 7.64198 -3.1051
677 1 -10.8009 -9.7666 5.81296 -3.50667
678 1 -8.92763 -8.03319 6.0776 -3.51298
679 1 -9.04422 -9.94336 7.74723 -3.51987
680 1 -10.9319 -8.12649 7.80741 -3.48936
681 1 -7.34132 -9.96126 5.90473 -3.45784
682 1 -5.42519 -7.97548 6.02226 -3.50978
683 1 -5.54294 -10.016 7.66093 -3.46013
684 1 -7.08666 -8.04774 7.99185 -3.49707
685 1 -3.7413 -9.97836 6.09282 -3.42495
686 1 -2.09382 -8.19778 6.20133 -3.49382
687 1 -2.03215 -9.96838 7.88799 -3.48069
688 1 -3.85858 -8.25303 8.12829 -3.43624
689 1 -0.103718 -10.1072 6.15698 -3.41146
690 1 1.43644 -9.88825 4.29028 -3.43122
691 1 2.13037 -10.5519 6.53611 -3.43979
692 1 -0.247392 -8.2879 8.00952 -3.52217
693 1 3.99654 -10.5008 4.79464 -3.46817
694 1 5.84973 -8.88915 4.84709 -3.48776
695 1 5.73766 -9.01441 8.55012 -3.51742
696 1 4.0124 -8.84171 6.6661 -3.51054
697 1 7.53581 -8.77626 6.68744 -3.48648
698 1 9.32172 -6.99052 6.91226 -3.48272
699 1 9.30273 -8.91595 8.76077 -3.44489
700 1 7.62981 -7.04599 8.69049 -3.46807
701 1 10.9995 -8.84611 6.87217 -3.52682
702 1 12.8018 -7.12835 7.00666 -3.47409
703 1 12.9453 -8.97807 8.74804 -3.33394
704 1 11.0689 -7.23248 8.79301 -3.48407
705 1 14.5604 -8.83677 6.70543 -2.70726
706 1 14.7456 -7.29062 8.9503 -3.09579
707 1 -16.1394 -4.38693 5.98988 -2.97754
708 1 -16.0603 -6.23989 7.49573 -2.69661
709 1 -14.337 -6.23335 5.98062 -3.28791
710 1 -12.5119 -4.59744 6.09744 -3.47331
711 1 -12.8003 -6.4962 7.91625 -3.48745
712 1 -14.402 -4.51332 7.94033 -3.43627
713 1 -10.7392 -6.22829 6.2134 -3.52318
714 1 -8.89261 -4.44613 6.19665 -3.43013
715 1 -8.98715 -6.29682 8.08681 -3.48336
716 1 -10.6841 -4.58948 8.22606 -3.4715
717 1 -7.22337 -6.19321 6.13182 -3.51157
718 1 -5.45802 -4.42236 6.16307 -3.50285
719 1 -5.30878 -6.3986 8.14226 -3.46581
720 1 -7.1295 -4.51595 8.11882 -3.5497
721 1 -3.72836 -6.26374 6.08122 -3.48038
722 1 -2.01673 -6.17747 4.19406 -3.49448
723 1 -2.03851 -6.57498 8.08185 -3.49086
724 1 -3.70559 -4.55293 8.22066 -3.50916
725 1 -0.28671 -8.08599 4.22367 -3.50005
726 1 1.57811 -6.31607 4.39205 -3.50973
727 1 1.49451 -8.19704 6.17632 -3.50266
728 1 -0.284508 -6.3694 6.27514 -3.48627
729 1 3.36216 -8.16348 4.32829 -3.50292
730 1 5.09385 -6.36986 4.45983 -3.49357
731 1 5.84923 -7.11925 6.79093 -3.48072
732 1 3.47813 -6.45991 6.42813 -3.49049
733 1 7.52048 -7.00429 4.81091 -3.50743
734 1 9.28734 -5.25927 5.02966 -3.50552
735 1 9.36746 -5.37265 9.0025 -3.51732
736 1 7.53515 -5.28925 6.98513 -3.45892
737 1 11.0715 -5.353 6.97054 -3.48613
738 1 13.0458 -3.50806 7.17994 -3.50881
739 1 12.788 -5.53277 8.97473 -3.50865