ITEM: TIMESTEP
182000
ITEM: NUMBER OF ATOMS
3804
ITEM: BOX BOUNDS ss ss pp
-1.7776709524060902e+01 1.7859834660391073e+01
-1.7692747064222750e+01 1.6614431419516087e+01
-3.9475800000000003e+00 4.7327580000000005e+01
ITEM: ATOMS id type x y z c_peratom
1 1 -5.80014 -14.9854 -3.72182 -2.96075
2 1 -7.62981 -14.9651 -1.70122 -2.72067
3 1 -2.48504 -15.1403 -3.77171 -2.9333
4 1 -4.21528 -15.0684 -1.80199 -2.86977
5 1 0.193167 -15.5537 -3.2406 -2.69152
6 1 1.77096 -15.5533 45.9931 -2.89901
7 1 -0.120701 -14.1118 -1.11603 -3.17408
8 1 5.88117 -14.5275 46.9823 -2.77103
9 1 4.18242 -14.4673 -2.45795 -2.9901
10 1 6.40965 -13.5546 0.299691 -2.84188
11 1 -12.61 -11.0739 -3.33619 -2.8969
12 1 -10.8857 -12.9335 -3.30942 -2.72896
13 1 -9.16244 -11.191 -3.38215 -3.47517
14 1 -9.25119 -13.0966 -1.5333 -3.08626
15 1 -10.8334 -11.1865 -1.55953 -3.32929
16 1 -7.60804 -13.1595 -3.44762 -3.41001
17 1 -5.87113 -11.3282 -3.28527 -3.47271
18 1 -5.86228 -13.2905 -1.54735 -3.44393
19 1 -7.50214 -11.4339 -1.40845 -3.46017
20 1 -4.18663 -13.1618 -3.447 -3.48053
21 1 -2.29204 -13.1987 45.7807 -3.41249
22 1 -2.32817 -13.4657 -1.58534 -3.32269
23 1 -4.00318 -11.6115 -1.24255 -3.44175
24 1 -0.553512 -14.906 45.7262 -3.20637
25 1 1.11809 -13.1356 45.794 -3.46807
26 1 1.84108 -13.998 -3.15256 -3.25527
27 1 -0.766716 -13.3297 -3.57954 -3.43544
28 1 3.60224 -13.7957 46.2967 -3.32537
29 1 5.36518 -12.1275 46.6654 -3.47392
30 1 6.06296 -12.9481 -2.07644 -3.20168
31 1 3.5113 -12.066 -2.7177 -3.44243
32 1 7.79077 -12.7628 47.2141 -3.09766
33 1 9.66294 -10.9573 -3.91412 -3.19271
34 1 8.41891 -11.894 0.646601 -2.94019
35 1 7.59384 -11.0351 -2.00374 -3.31959
36 1 9.91262 -11.6737 -1.47871 -2.66942
37 1 11.9103 -9.84436 -1.19751 -2.82549
38 1 10.3302 -9.98609 0.632128 -3.178
39 1 -14.4996 -9.39181 -3.48508 -2.78456
40 1 -12.7499 -7.63577 -3.10079 -3.52337
41 1 -12.8365 -9.63799 -1.38971 -3.31941
42 1 -14.5953 -7.73548 -1.3046 -3.19445
43 1 -10.8477 -9.31901 -3.29281 -3.47277
44 1 -9.10256 -7.77738 -3.09038 -3.46799
45 1 -9.15291 -9.57533 -1.25649 -3.48128
46 1 -10.9879 -7.87304 -1.30005 -3.5255
47 1 -7.47655 -9.50159 -3.25474 -3.47993
48 1 -5.72533 -9.59664 46.2368 -3.44782
49 1 -5.78813 -9.81337 -1.3251 -3.47999
50 1 -7.43637 -7.88032 -1.20201 -3.51007
51 1 -3.83301 -11.2324 45.9533 -3.50998
52 1 -2.09994 -9.54021 46.1741 -3.49566
53 1 -2.33931 -11.5181 -3.29228 -3.49753
54 1 -4.04634 -9.70288 -3.2024 -3.47587
55 1 -0.522929 -11.4627 45.9215 -3.47456
56 1 1.32659 -9.77176 46.2192 -3.47556
57 1 1.24226 -11.5985 -3.35304 -3.48132
58 1 -0.427052 -9.83462 -3.21047 -3.5091
59 1 3.11428 -11.3881 45.9333 -3.48718
60 1 4.8203 -9.68782 46.1084 -3.46931
61 1 5.3463 -10.4483 -2.72499 -3.46531
62 1 2.97383 -9.78184 -3.21482 -3.447
63 1 7.16987 -10.3378 46.7448 -3.49008
64 1 8.86813 -8.4391 46.8577 -3.4731
65 1 9.55109 -9.24009 -1.85654 -3.45156
66 1 7.23687 -8.6438 -2.43333 -3.4695
67 1 11.3259 -9.19918 -3.82167 -3.23755
68 1 13.0546 -7.33598 -3.64798 -3.24926
69 1 12.2533 -8.34288 0.872517 -3.16716
70 1 11.3537 -7.52884 -1.77552 -3.46055
71 1 13.834 -8.18006 -1.23062 -2.65409
72 1 13.8127 -6.67227 0.843016 -3.03346
73 1 -16.5256 -4.47496 -2.85765 -2.73258
74 1 -16.0848 -6.01866 -1.06514 -2.81019
75 1 -14.4308 -5.66181 -2.87356 -3.23239
76 1 -12.684 -4.19264 -2.89623 -3.4524
77 1 -12.667 -6.01184 -1.05837 -3.5262
78 1 -14.3484 -4.19879 -0.941383 -3.40081
79 1 -10.9297 -6.00103 -2.92396 -3.52777
80 1 -9.0657 -5.90933 46.461 -3.4521
81 1 -9.19133 -6.11434 -1.0502 -3.49073
82 1 -10.8664 -4.35192 -0.910672 -3.45891
83 1 -7.24077 -7.66632 46.2518 -3.51989
84 1 -5.57973 -5.90118 46.572 -3.49709
85 1 -5.56114 -7.78089 -2.99221 -3.52212
86 1 -7.40347 -5.90954 -3.00591 -3.50101
87 1 -4.0731 -7.9225 46.187 -3.48446
88 1 -2.1341 -6.08755 46.4647 -3.51942
89 1 -2.33333 -8.0319 -3.06359 -3.51115
90 1 -3.79415 -6.07309 -2.92566 -3.43915
91 1 -0.282968 -7.90777 46.2135 -3.47022
92 1 1.4603 -5.98032 46.35 -3.49049
93 1 1.33225 -8.08199 -3.15591 -3.46336
94 1 -0.361336 -6.35624 -3.04528 -3.49231
95 1 3.17242 -7.97806 46.177 -3.4988
96 1 4.90515 -6.12302 46.4974 -3.464
97 1 4.86243 -8.09929 -2.98497 -3.4555
98 1 3.28793 -6.28456 -2.86729 -3.52345
99 1 6.49282 -7.92559 46.4696 -3.46985
100 1 8.27466 -6.16018 46.4455 -3.46297
101 1 8.8187 -6.87975 -2.18605 -3.46363
102 1 6.45825 -6.24595 -2.85691 -3.50834
103 1 10.6719 -6.80949 47.111 -3.46125
104 1 12.2929 -5.11401 47.2979 -3.41261
105 1 13.1327 -5.8578 -1.37152 -3.36582
106 1 10.699 -5.1116 -2.08211 -3.50732
107 1 14.8059 -5.54814 -3.18339 -3.13471
108 1 16.5447 -3.65863 -2.94264 -2.79172
109 1 15.347 -4.87347 1.05278 -2.73627
110 1 14.9977 -3.98124 -1.33274 -3.15746
111 1 -15.3737 -0.23249 -3.15788 -3.04871
112 1 -16.252 -2.73198 -1.17059 -2.85337
113 1 -14.5823 -2.63727 -2.93415 -3.36322
114 1 -12.7803 -2.51369 46.4775 -3.48833
115 1 -12.6227 -2.65543 -0.89779 -3.37425
116 1 -14.5603 -1.01444 -0.818763 -3.35503
117 1 -10.7994 -4.21828 46.396 -3.50077
118 1 -9.13456 -2.30951 46.7291 -3.45335
119 1 -9.161 -4.17919 -2.82141 -3.5
120 1 -10.8661 -2.50907 -2.53126 -3.40016
121 1 -7.43097 -3.91024 46.5092 -3.47719
122 1 -5.57186 -2.18638 46.8017 -3.49916
123 1 -5.4861 -4.31687 -2.76603 -3.4945
124 1 -7.27728 -2.41902 -2.46178 -3.47911
125 1 -3.76358 -4.10387 46.5892 -3.48535
126 1 -2.0352 -2.41183 46.7102 -3.47105
127 1 -2.02518 -4.43237 -2.8529 -3.48714
128 1 -3.76779 -2.58001 -2.54891 -3.51859
129 1 -0.354423 -4.20996 46.6399 -3.45469
130 1 1.34122 -2.58229 46.6987 -3.4785
131 1 1.29639 -4.58016 -2.77485 -3.51079
132 1 -0.324269 -2.69345 -2.52881 -3.49476
133 1 3.31563 -4.27746 46.6423 -3.51301
134 1 5.08913 -2.48082 46.7039 -3.47539
135 1 4.90948 -4.31233 -2.69874 -3.43237
136 1 3.16002 -2.59276 -2.5087 -3.46869
137 1 6.6442 -4.42967 46.5713 -3.48933
138 1 8.29431 -2.45969 46.906 -3.47877
139 1 8.21517 -4.45989 -2.69662 -3.51774
140 1 6.49918 -2.6822 -2.42368 -3.41357
141 1 9.96346 -4.32418 46.7808 -3.52179
142 1 11.8278 -2.68611 46.9229 -3.49612
143 1 12.6364 -3.39957 -2.02458 -3.50065
144 1 10.2681 -2.77857 -2.51651 -3.47844
145 1 14.2726 -3.23929 -3.76392 -3.44109
146 1 16.1224 -1.26935 -3.4157 -3.11793
147 1 16.7114 -2.08408 -0.933627 -2.80801
148 1 14.3567 -1.6244 -1.79031 -3.45405
149 1 -16.7268 1.94263 40.6099 -2.70521
150 1 -15.6739 0.777915 45.4915 -2.93618
151 1 -15.137 1.25221 -1.17995 -3.1834
152 1 -13.4357 -0.0711883 46.02 -3.4496
153 1 -11.4862 1.94496 46.2961 -3.47446
154 1 -12.7924 -0.927563 -2.59264 -3.48153
155 1 -13.4288 1.43985 -3.04741 -3.50237
156 1 -11.0968 -0.517774 46.7847 -3.49492
157 1 -9.26978 1.22543 46.9468 -3.49067
158 1 -9.12625 -0.664311 -2.39912 -3.48771
159 1 -11.0705 1.02558 -2.43747 -3.49282
160 1 -7.42479 -0.532587 46.8859 -3.51002
161 1 -5.51539 1.23529 47.0096 -3.47988
162 1 -5.59487 -0.766522 -2.42387 -3.45335
163 1 -7.28787 0.931798 -2.36414 -3.49048
164 1 -3.80102 -0.532989 46.9667 -3.51201
165 1 -1.86424 1.10081 47.0608 -3.49272
166 1 -1.93667 -0.686307 -2.54976 -3.49836
167 1 -3.76996 1.04547 -2.20524 -3.47102
168 1 -0.331485 -0.713285 46.9175 -3.43469
169 1 1.29357 1.06711 47.1777 -3.52087
170 1 1.38744 -0.876835 -2.38951 -3.52295
171 1 -0.295423 1.07243 -2.07692 -3.44246
172 1 3.10779 -0.678702 46.9183 -3.5197
173 1 4.90469 1.04601 46.99 -3.50198
174 1 4.83694 -0.895249 -2.39554 -3.45603
175 1 3.21402 0.87961 -2.27174 -3.49161
176 1 6.70453 -0.776693 47.0603 -3.44195
177 1 8.39099 1.06183 47.208 -3.51842
178 1 8.31791 -0.970972 -2.29855 -3.5075
179 1 6.60679 0.960896 -2.16509 -3.52843
180 1 10.0696 -0.825767 47.0958 -3.49476
181 1 11.7646 0.858269 47.3106 -3.45139
182 1 11.8876 -1.00344 -2.06283 -3.45652
183 1 10.1483 0.670351 -2.14199 -3.48205
184 1 13.4574 -0.868567 47.093 -3.50206
185 1 15.4449 1.06368 -3.8398 -3.31159
186 1 15.8198 0.21916 -1.2831 -3.11605
187 1 13.4913 0.801006 -1.98389 -3.44106
188 1 17.1865 0.896566 45.6778 -2.69436
189 1 -14.4987 4.78316 45.1836 -3.01904
190 1 -15.7634 2.37674 -3.83218 -2.77389
191 1 -13.8909 2.31251 45.691 -3.32191
192 1 -12.175 4.27391 45.8063 -3.42207
193 1 -11.4661 3.32648 -2.76393 -3.44807
194 1 -13.7645 3.89626 -3.67719 -3.35249
195 1 -9.8604 3.62902 46.5425 -3.43748
196 1 -7.9626 5.22164 46.6984 -3.48757
197 1 -9.12766 2.6497 -2.27767 -3.51695
198 1 -9.74126 5.03816 -2.62722 -3.51358
199 1 -7.41572 2.9041 47.0797 -3.52222
200 1 -5.55313 4.61662 -3.9681 -3.48306
201 1 -5.47945 2.80286 -2.28701 -3.43862
202 1 -7.25552 4.38011 -2.06554 -3.46182
203 1 -3.74167 2.84988 47.2157 -3.50296
204 1 -2.05959 4.64471 47.3133 -3.49723
205 1 -2.00091 2.83508 -2.20004 -3.50879
206 1 -3.81008 4.42111 -2.09243 -3.44514
207 1 -0.259052 2.90287 47.1849 -3.47549
208 1 1.53604 4.51815 -3.76514 -3.48745
209 1 1.54417 2.5431 -1.99341 -3.47078
210 1 -0.133291 4.42809 -1.97734 -3.50821
211 1 3.2335 2.78101 47.1984 -3.48286
212 1 4.92318 4.50473 -3.91811 -3.46088
213 1 4.90544 2.70128 -1.99151 -3.47832
214 1 3.27076 4.42546 -2.06147 -3.46304
215 1 6.74419 2.83963 47.2583 -3.50629
216 1 8.61193 4.49115 -3.71404 -3.45294
217 1 8.64486 2.63364 -1.9959 -3.51892
218 1 6.81937 4.2823 -1.96476 -3.49042
219 1 10.1861 2.74362 47.2918 -3.4832
220 1 12.0158 4.48643 -3.82662 -3.50825
221 1 11.9252 2.56281 -1.95003 -3.40493
222 1 10.432 4.41281 -1.84144 -3.50518
223 1 13.6009 2.59667 -3.74612 -3.46105
224 1 15.6133 4.38143 -3.61329 -3.04085
225 1 15.7285 2.73376 -1.87685 -3.13279
226 1 13.6366 4.39432 -1.81414 -3.48281
227 1 -14.6668 6.15711 47.2985 -2.81311
228 1 -12.6873 6.54856 45.437 -3.38823
229 1 -10.8686 8.31399 45.6425 -3.47104
230 1 -12.0036 5.70046 -3.37809 -3.48591
231 1 -12.7289 8.12715 -3.84778 -3.14241
232 1 -10.2946 5.93569 46.1569 -3.46777
233 1 -8.43419 7.62569 46.4557 -3.49631
234 1 -7.93227 6.76935 -2.50434 -3.51027
235 1 -10.3133 7.50123 -2.90669 -3.47294
236 1 -6.11686 6.95184 46.887 -3.45212
237 1 -4.35502 8.61919 46.9026 -3.45621
238 1 -5.5987 6.12544 -1.88183 -3.50609
239 1 -6.24781 8.64119 -2.51566 -3.52668
240 1 -3.90439 6.33576 -3.72613 -3.45749
241 1 -1.97178 8.0773 -3.48872 -3.49925
242 1 -1.9938 6.13022 -1.79501 -3.52152
243 1 -3.8613 8.05778 -1.70086 -3.52888
244 1 -0.28366 6.30242 -3.64504 -3.49576
245 1 1.6021 8.02064 -3.64481 -3.4617
246 1 1.58503 6.1902 -1.70554 -3.47371
247 1 -0.307419 7.92715 -1.6652 -3.4985
248 1 3.34452 6.33657 -3.78821 -3.47338
249 1 4.99073 8.1054 -3.49925 -3.4714
250 1 4.93571 6.17526 -1.59698 -3.51934
251 1 3.19864 7.87738 -1.747 -3.44422
252 1 6.66409 6.17965 -3.61929 -3.53123
253 1 8.48148 7.93779 -3.6315 -3.49232
254 1 8.46886 6.03633 -1.84761 -3.45076
255 1 6.87566 7.81247 -1.62974 -3.49743
256 1 10.2709 6.20406 -3.55932 -3.46707
257 1 11.9797 7.88756 -3.48666 -3.42791
258 1 12.0593 6.20967 -1.64173 -3.45362
259 1 10.2591 7.82881 -1.59717 -3.48076
260 1 13.9201 6.28211 -3.48602 -3.31114
261 1 15.6607 5.72236 -1.67091 -2.71231
262 1 14.0082 7.71689 -1.69503 -3.04384
263 1 -13.3565 8.9677 45.092 -2.81872
264 1 -11.437 10.793 45.2668 -2.86926
265 1 -11.0486 9.89377 -3.52591 -3.24276
266 1 -9.02322 9.99011 45.9123 -3.46248
267 1 -7.21756 12.0375 46.0481 -3.36184
268 1 -8.66456 9.26017 -2.83315 -3.47903
269 1 -9.28028 11.688 -3.41955 -3.21671
270 1 -6.64173 9.57221 46.475 -3.4836
271 1 -4.83357 11.2617 46.6015 -3.51992
272 1 -4.36096 10.3723 -2.2957 -3.46689
273 1 -6.73536 11.1704 -2.83939 -3.47366
274 1 -2.59195 10.504 -3.91174 -3.47496
275 1 -0.72273 12.2845 -3.81504 -3.48421
276 1 -1.95555 9.80546 -1.60259 -3.50914
277 1 -2.58243 12.2956 -2.04502 -3.48512
278 1 -0.117131 9.80258 -3.35862 -3.50157
279 1 1.59495 11.5619 -3.31377 -3.50115
280 1 1.60015 9.70178 -1.47993 -3.49902
281 1 -0.0816776 11.4953 -1.38226 -3.50679
282 1 3.25339 9.72825 -3.60132 -3.45238
283 1 5.20825 11.5183 -3.36284 -3.51544
284 1 5.04608 9.55161 -1.51321 -3.50977
285 1 3.46505 11.4182 -1.28767 -3.46594
286 1 6.80847 9.73107 -3.41154 -3.456
287 1 8.51219 11.4004 -3.23429 -3.42995
288 1 8.57082 9.54965 -1.32143 -3.46147
289 1 6.81047 11.3738 -1.32486 -3.46012
290 1 10.271 9.65258 -3.4912 -3.50201
291 1 11.9634 11.507 -3.35613 -2.82917
292 1 12.0956 9.53894 -1.49965 -3.28879
293 1 10.3546 11.2015 -1.41658 -3.30656
294 1 13.6473 9.65858 -3.26414 -2.76921
295 1 -9.53101 12.474 45.4403 -2.74392
296 1 -7.38039 13.408 -3.03445 -2.95792
297 1 -5.48597 13.7915 46.2244 -3.17055
298 1 -3.6767 15.2472 46.2297 -2.78799
299 1 -4.88027 12.7684 -2.58502 -3.42502
300 1 -5.5334 15.0623 -2.85558 -2.65439
301 1 -2.9687 12.9026 46.6976 -3.5079
302 1 -1.28537 14.7905 47.1233 -3.21858
303 1 -0.765327 13.9012 -1.7503 -3.35769
304 1 -3.11298 14.6197 -2.62647 -3.09392
305 1 1.09745 14.0483 -3.69738 -3.45694
306 1 2.81951 15.9184 -3.72188 -3.09372
307 1 1.70822 13.3379 -1.29414 -3.52895
308 1 1.13755 15.8382 -1.77543 -2.92891
309 1 3.45508 13.4906 -3.23074 -3.48883
310 1 5.10997 15.3323 -2.94335 -3.01916
311 1 5.10383 13.2038 -1.30827 -3.42584
312 1 3.48626 15.1477 -1.09083 -3.12154
313 1 6.96103 13.3626 -3.08381 -3.41153
314 1 8.44298 13.2412 -0.907656 -3.07403
315 1 6.63367 14.9941 -1.07798 -2.74352
316 1 9.95446 13.2539 -2.97509 -2.72646
317 1 0.482185 16.4301 47.1163 -2.71019
318 1 -5.98473 -15.0287 0.289518 -2.85118
319 1 -7.83839 -15.2343 1.88219 -2.51857
320 1 -1.66319 -14.3366 1.11756 -2.91626
321 1 -3.73399 -14.2439 2.58929 -2.9159
322 1 2.31393 -14.9054 -0.843191 -2.91867
323 1 4.35191 -15.0965 0.281066 -2.52459
324 1 0.697314 -14.7441 1.02265 -2.70555
325 1 4.812 -13.8491 2.31167 -2.93964
326 1 2.94699 -13.9885 4.03107 -2.86488
327 1 7.22101 -12.6684 4.8685 -2.72148
328 1 -12.7882 -11.4061 0.478727 -2.85217
329 1 -10.9309 -13.188 0.283465 -2.74748
330 1 -9.31493 -11.3725 0.503968 -3.46486
331 1 -9.57478 -13.349 2.24324 -3.08583
332 1 -11.1133 -11.4693 2.35513 -3.35863
333 1 -7.79558 -13.3825 0.290314 -3.34312
334 1 -5.82424 -11.5798 0.364415 -3.50759
335 1 -6.11709 -13.5713 2.26831 -3.31125
336 1 -7.75164 -11.7651 2.38403 -3.48483
337 1 -4.11617 -13.5718 0.160702 -3.25918
338 1 -2.39515 -11.8392 0.439987 -3.45715
339 1 -1.65828 -12.6573 2.95902 -3.30386
340 1 -4.25252 -11.8536 2.32808 -3.44796
341 1 -0.00351646 -12.3823 0.885134 -3.42325
342 1 1.80362 -12.4726 -0.798089 -3.52812
343 1 2.37049 -13.2723 1.6357 -3.35966
344 1 0.0223549 -11.1184 3.06723 -3.3905
345 1 4.19359 -12.9161 -0.257603 -3.3167
346 1 6.00297 -11.1929 -0.0703143 -3.4456
347 1 4.85191 -12.3693 4.17346 -3.28529
348 1 4.091 -11.3916 1.7468 -3.50905
349 1 6.55455 -12.139 2.4045 -3.22987
350 1 8.39319 -10.3125 2.60585 -3.3563
351 1 8.98157 -11.1352 5.13532 -3.07101
352 1 6.62786 -10.4036 4.44869 -3.41569
353 1 10.6614 -10.7508 3.29962 -2.70498
354 1 12.7593 -8.96882 3.22212 -2.81126
355 1 10.8217 -9.26386 5.17558 -3.20862
356 1 -14.5224 -9.54535 0.479447 -2.7283
357 1 -12.801 -7.89922 0.652259 -3.47212
358 1 -12.9449 -9.74672 2.38243 -3.34303
359 1 -14.8063 -7.99431 2.43132 -3.07834
360 1 -10.955 -9.63936 0.623711 -3.49353
361 1 -9.24879 -7.88431 0.773468 -3.4623
362 1 -9.25817 -9.75981 2.45287 -3.50142
363 1 -11.0418 -8.06562 2.66136 -3.53501
364 1 -7.48265 -9.57343 0.694313 -3.50445
365 1 -5.6091 -8.00389 0.826057 -3.46892
366 1 -5.85376 -10.1498 2.50038 -3.48863
367 1 -7.41666 -8.12732 2.71179 -3.44949
368 1 -3.85689 -9.97507 0.779454 -3.458
369 1 -2.19726 -9.90807 -1.2832 -3.50628
370 1 -2.25769 -10.1987 2.53911 -3.50553
371 1 -3.96494 -8.33819 2.64259 -3.52433
372 1 -0.581374 -11.6837 -1.42318 -3.47742
373 1 1.143 -9.89405 -1.22058 -3.53863
374 1 1.74796 -10.8506 1.20362 -3.49081
375 1 -0.588428 -9.92018 0.574433 -3.49855
376 1 3.49454 -10.5379 -0.68507 -3.49588
377 1 5.4157 -8.75383 -0.481445 -3.51155
378 1 6.00512 -9.61763 1.88515 -3.50005
379 1 3.55897 -9.0071 1.38203 -3.51675
380 1 7.78904 -9.47409 0.0870626 -3.51257
381 1 9.71754 -7.69513 0.229144 -3.45743
382 1 8.62588 -8.70162 4.47021 -3.49461
383 1 8.07742 -7.72324 2.07469 -3.49208
384 1 10.4061 -8.41194 2.53492 -3.42956
385 1 12.114 -6.58572 2.83496 -3.43618
386 1 12.7148 -7.59266 5.15259 -3.20083
387 1 10.2185 -6.83704 4.73037 -3.52064
388 1 14.3942 -7.02886 3.46805 -2.74787
389 1 14.556 -5.64887 5.57282 -2.95489
390 1 -16.2487 -4.18811 1.06032 -2.95887
391 1 -16.4099 -5.93807 2.71823 -2.73379
392 1 -14.5981 -6.11636 0.783377 -3.37167
393 1 -12.5903 -4.37421 0.806274 -3.46663
394 1 -12.9348 -6.3054 2.67867 -3.44875
395 1 -14.3129 -4.48205 2.93441 -3.41543
396 1 -10.9504 -6.22009 0.851304 -3.49399
397 1 -9.07215 -4.49522 1.14619 -3.53828
398 1 -9.10693 -6.46627 2.95119 -3.51339
399 1 -11.0058 -4.67992 2.96607 -3.55264
400 1 -7.38967 -6.3876 0.999315 -3.49404
401 1 -5.65894 -6.20753 -1.0945 -3.49938
402 1 -5.66931 -6.53015 2.96679 -3.47004
403 1 -7.28801 -4.67003 3.05333 -3.49599
404 1 -3.93554 -8.02688 -1.10666 -3.52901
405 1 -2.22156 -6.18575 -1.10286 -3.4877
406 1 -2.16571 -8.14722 0.765766 -3.4695
407 1 -3.85221 -6.35558 0.98495 -3.49717
408 1 -0.525003 -7.96527 -1.14907 -3.50868
409 1 1.41094 -6.38974 -1.00401 -3.49306
410 1 1.27693 -8.27163 0.803427 -3.49435
411 1 -0.375302 -6.5143 0.885633 -3.49008
412 1 3.02536 -8.24262 -1.15501 -3.48238
413 1 4.89593 -6.45995 -0.921506 -3.44101
414 1 5.50973 -7.23998 1.58092 -3.52283
415 1 3.11545 -6.62655 0.758846 -3.43654
416 1 7.29714 -7.06793 -0.357427 -3.47806
417 1 9.03562 -5.3503 0.0387595 -3.43937
418 1 9.71309 -6.06529 2.33673 -3.44802
419 1 7.18818 -5.4018 1.63337 -3.48774
420 1 11.3469 -5.95686 0.484324 -3.4736
421 1 13.1176 -4.1532 0.539348 -3.44713
422 1 12.1789 -5.15115 4.91684 -3.49307
423 1 11.2752 -4.18838 2.47985 -3.49833
424 1 13.7024 -4.76996 2.9541 -3.34981
425 1 15.6703 -3.03863 3.1297 -2.97294
426 1 16.2532 -3.76861 5.55535 -2.63149
427 1 13.833 -3.4041 5.13099 -3.3937
428 1 -16.2933 -1.18279 1.01094 -3.01922
429 1 -16.2295 -2.93039 3.0311 -3.04635
430 1 -14.4489 -2.68051 1.19365 -3.41396
431 1 -12.5801 -1.0336 1.22532 -3.5071
432 1 -12.674 -2.74479 3.17274 -3.47914
433 1 -14.4839 -1.18338 3.18581 -3.44999
434 1 -10.8049 -2.74066 1.25184 -3.52672
435 1 -9.16974 -2.61831 -0.73102 -3.51772
436 1 -9.1082 -2.93381 3.20007 -3.47389
437 1 -10.8581 -1.00336 3.20579 -3.49243
438 1 -7.45402 -4.52197 -0.871611 -3.50629
439 1 -5.63055 -2.64148 -0.685876 -3.49786
440 1 -5.68125 -4.49953 1.03828 -3.5264
441 1 -7.33296 -2.78154 1.22448 -3.44291
442 1 -3.89305 -4.40068 -0.761452 -3.47514
443 1 -2.08394 -2.85396 -0.832928 -3.45996
444 1 -2.16859 -4.57471 1.20281 -3.46989
445 1 -3.80585 -2.78112 1.24856 -3.50038
446 1 -0.277999 -4.57182 -0.782808 -3.49917
447 1 1.41099 -2.75907 -0.762711 -3.48395
448 1 1.58363 -4.78078 1.02392 -3.50326
449 1 -0.324037 -2.75549 1.15448 -3.50763
450 1 3.25146 -4.68689 -0.913224 -3.47489
451 1 4.80311 -2.84207 -0.556759 -3.48232
452 1 4.72296 -4.89173 1.24135 -3.51268
453 1 3.14923 -2.94456 1.43743 -3.4701
454 1 6.51066 -4.71289 -0.674216 -3.52097
455 1 8.36036 -2.82247 -0.648681 -3.48416
456 1 9.0108 -3.59205 1.92087 -3.47342
457 1 6.60375 -2.9963 1.32302 -3.5165
458 1 10.7064 -3.62482 -0.00339188 -3.45688
459 1 12.3609 -1.8875 0.206008 -3.44656
460 1 13.1158 -2.40965 2.48045 -3.45781
461 1 10.6344 -1.84818 2.18939 -3.47265
462 1 14.9404 -2.4933 0.803663 -3.31857
463 1 16.5718 -0.483141 1.23103 -2.83865
464 1 16.0413 -1.38502 5.23305 -2.99485
465 1 14.9821 -0.730419 2.95473 -3.31376
466 1 -16.9541 1.26582 1.1567 -2.61955
467 1 -15.2355 2.84452 0.912652 -3.25755
468 1 -16.451 0.204175 3.19381 -3.04594
469 1 -14.5119 0.561869 1.28481 -3.46525
470 1 -12.7561 0.72159 -0.563208 -3.50154
471 1 -12.7293 0.526105 3.28037 -3.41406
472 1 -14.5201 1.95499 3.33151 -3.40163
473 1 -10.935 -0.948804 -0.629032 -3.46607
474 1 -9.18695 0.806528 -0.54276 -3.47796
475 1 -8.97778 -0.98879 1.28638 -3.51956
476 1 -10.8328 0.698902 1.32831 -3.46051
477 1 -7.28991 -0.855276 -0.588852 -3.48311
478 1 -5.47317 0.831239 -0.324382 -3.53208
479 1 -5.62247 -1.09913 1.33577 -3.50732
480 1 -7.28065 0.727115 1.44873 -3.49159
481 1 -3.74305 -0.925571 -0.597145 -3.52881
482 1 -2.16408 0.903713 -0.49424 -3.38684
483 1 -2.18289 -0.969985 1.34289 -3.42558
484 1 -3.79645 0.693292 1.5756 -3.43962
485 1 -0.391905 -0.884833 -0.570714 -3.52125
486 1 1.42172 0.813015 -0.205808 -3.48412
487 1 1.41556 -1.06474 1.51857 -3.4888
488 1 -0.458653 0.699718 1.56362 -3.52417
489 1 3.11224 -0.881144 -0.285557 -3.49464
490 1 4.89753 0.740706 -0.268485 -3.45247
491 1 4.88156 -1.05934 1.554 -3.51389
492 1 3.14557 0.684849 1.79805 -3.46287
493 1 6.37445 -1.05644 -0.539612 -3.42283
494 1 8.54808 0.719872 -0.157449 -3.51116
495 1 8.16683 -1.12161 1.59143 -3.4695
496 1 6.60142 0.635593 1.75305 -3.4097
497 1 10.0489 -1.21305 -0.339951 -3.44179
498 1 11.7259 0.597138 0.0844201 -3.45462
499 1 12.5247 -0.132755 2.43518 -3.47276
500 1 10.0454 0.536281 1.86634 -3.50035
501 1 14.171 -0.17107 0.520007 -3.51149
502 1 15.7694 1.82341 0.744711 -3.07626
503 1 16.7582 0.970623 3.22734 -2.83089
504 1 14.2429 1.7324 2.54063 -3.46313
505 1 17.2314 2.74408 -3.87741 -2.48315
506 1 -15.7752 3.73621 -1.65659 -2.7826
507 1 -15.1108 4.47091 2.93162 -3.08993
508 1 -13.3261 3.11448 -1.15168 -3.51214
509 1 -11.5677 4.93325 -0.821646 -3.46888
510 1 -12.6664 2.24936 1.36546 -3.45611
511 1 -13.2693 4.53897 1.09258 -3.42362
512 1 -10.9451 2.53706 -0.396747 -3.45034
513 1 -9.37975 4.19218 -0.0790978 -3.43511
514 1 -9.06348 2.30265 1.60627 -3.46249
515 1 -10.9037 4.08786 1.88596 -3.51159
516 1 -7.4482 2.59486 -0.30174 -3.52353
517 1 -5.36224 4.29053 -0.0741282 -3.51066
518 1 -5.42339 2.41716 1.71478 -3.48903
519 1 -7.28786 3.98847 1.7737 -3.48621
520 1 -3.69781 2.57447 -0.30606 -3.39481
521 1 -2.10295 4.37099 0.0225646 -3.489
522 1 -2.12966 2.50476 1.77033 -3.4958
523 1 -3.78467 4.35423 1.91681 -3.49545
524 1 -0.381229 2.66512 -0.150926 -3.54018
525 1 1.59646 4.33583 -0.0178743 -3.49766
526 1 1.40699 2.36951 1.80504 -3.49824
527 1 -0.344573 4.05532 1.95711 -3.46329
528 1 3.20251 2.50013 -0.00218106 -3.46134
529 1 4.85786 4.21532 0.0594236 -3.49581
530 1 4.934 2.27081 1.78349 -3.46255
531 1 3.35762 4.11726 2.05439 -3.49272
532 1 6.77063 2.42031 -0.135852 -3.51614
533 1 8.55692 4.16779 -0.00520271 -3.5176
534 1 8.31354 2.38426 1.83811 -3.48786
535 1 6.67874 4.11688 1.94101 -3.48007
536 1 10.4047 2.52795 -0.11185 -3.44798
537 1 12.0046 4.39528 0.209173 -3.50964
538 1 11.9118 2.28515 1.94011 -3.47164
539 1 10.1997 4.1121 1.99883 -3.49784
540 1 13.4228 2.32344 0.105388 -3.45448
541 1 15.1644 4.1049 0.285156 -3.1441
542 1 16.1259 3.33935 2.71155 -3.04095
543 1 13.7206 4.08539 2.33805 -3.44294
544 1 -15.4807 5.16463 0.252467 -2.68452
545 1 -13.9326 5.43992 -1.62454 -3.19681
546 1 -12.1659 7.22569 -1.28466 -3.34707
547 1 -11.5552 6.51602 1.13099 -3.44256
548 1 -13.8656 6.85308 0.795205 -2.96694
549 1 -9.72992 6.67446 -0.485798 -3.51395
550 1 -7.90945 8.44147 -0.567405 -3.49323
551 1 -9.22703 5.99803 1.93758 -3.51645
552 1 -9.91201 8.39469 1.3785 -3.48086
553 1 -7.37853 5.83403 -0.0272017 -3.52833
554 1 -5.71855 7.75732 0.0201001 -3.46788
555 1 -5.62765 6.00807 1.88123 -3.51426
556 1 -7.5278 7.78547 1.86617 -3.43492
557 1 -3.77648 6.16399 0.124476 -3.50525
558 1 -1.93185 7.89384 0.291954 -3.49192
559 1 -1.99107 6.04418 2.17187 -3.49607
560 1 -3.84518 7.68228 2.18212 -3.49176
561 1 -0.222229 6.00349 0.121029 -3.51185
562 1 1.60137 7.78003 0.384426 -3.45823
563 1 1.22763 5.94809 2.08703 -3.49687
564 1 -0.397158 7.89284 2.23689 -3.46972
565 1 3.22857 6.02724 0.177713 -3.41999
566 1 4.92097 7.67894 0.475599 -3.44713
567 1 4.98626 5.84508 2.05815 -3.4673
568 1 3.09665 7.65324 2.2065 -3.4511
569 1 6.73721 5.86502 0.102615 -3.52916
570 1 8.30838 7.67177 0.59591 -3.38124
571 1 8.4261 5.67678 2.17354 -3.45955
572 1 6.77558 7.48013 2.37981 -3.4273
573 1 10.0442 6.13791 0.128251 -3.48076
574 1 11.8363 7.73265 0.418033 -3.43263
575 1 11.8835 5.91998 2.27329 -3.4738
576 1 10.0384 7.49716 2.39271 -3.51293
577 1 13.6456 6.07619 0.259904 -3.3312
578 1 15.4005 5.85327 2.34159 -2.80745
579 1 13.6893 7.64207 2.48807 -3.07708
580 1 -12.7243 9.65612 -1.63255 -2.66625
581 1 -10.9129 11.5645 -1.66307 -2.83633
582 1 -12.2392 9.02797 0.816493 -3.17195
583 1 -10.4254 9.11338 -1.07368 -3.45622
584 1 -8.60076 10.8872 -0.904369 -3.48184
585 1 -8.07176 10.0796 1.45439 -3.48486
586 1 -10.4336 10.8668 0.887222 -3.21177
587 1 -6.08559 10.2403 -0.367676 -3.51862
588 1 -4.41929 11.9277 -0.191908 -3.48193
589 1 -5.73827 9.33979 2.04827 -3.50295
590 1 -6.21694 11.9351 1.62614 -3.41834
591 1 -3.78822 9.4905 0.43301 -3.49665
592 1 -1.99641 11.3649 0.49984 -3.49284
593 1 -2.13581 9.58816 2.40775 -3.45781
594 1 -3.86841 11.1525 2.3222 -3.48115
595 1 -0.241195 9.68698 0.443217 -3.51101
596 1 1.70128 11.2966 0.428456 -3.49132
597 1 1.53894 9.41231 2.27473 -3.47758
598 1 -0.0783589 11.2938 2.60106 -3.46855
599 1 3.35327 9.43777 0.343093 -3.46404
600 1 5.18648 11.3975 0.502362 -3.51332
601 1 5.06104 9.2754 2.44448 -3.50917
602 1 3.44197 11.2562 2.43403 -3.48539
603 1 6.68077 9.43451 0.604188 -3.47214
604 1 8.23506 11.3097 0.564971 -3.41768
605 1 8.4171 9.3337 2.47896 -3.48818
606 1 6.86318 11.2404 2.64098 -3.49389
607 1 10.0641 9.42603 0.593574 -3.47834
608 1 11.9854 10.8891 0.661665 -2.88382
609 1 11.9456 9.21037 2.54847 -3.30515
610 1 10.1554 11.1876 2.53638 -3.31953
611 1 13.7228 9.13367 0.360877 -2.73067
612 1 -9.15659 13.252 -1.45777 -2.69315
613 1 -8.63786 12.4959 0.990376 -3.09901
614 1 -6.73137 12.7414 -0.72326 -3.36757
615 1 -4.79855 14.3198 -0.632583 -3.0296
616 1 -4.47498 13.5742 1.92489 -3.3024
617 1 -6.69392 14.2063 1.22881 -2.69906
618 1 -2.47259 13.8674 0.00380977 -3.29103
619 1 -0.620353 15.4594 0.235514 -2.832
620 1 -2.04408 12.9702 2.54641 -3.46991
621 1 -2.59401 15.2338 2.02153 -2.86815
622 1 -0.177972 12.9539 0.794338 -3.45162
623 1 1.58194 14.9595 0.778836 -3.17545
624 1 1.6626 13.0212 2.31694 -3.4417
625 1 -0.149261 14.6163 2.67132 -3.33044
626 1 3.44789 13.3548 0.608003 -3.45632
627 1 5.07292 15.1681 0.937358 -2.90624
628 1 5.09281 12.8955 2.64175 -3.42717
629 1 3.43578 14.7807 2.90941 -3.12502
630 1 6.74348 13.3759 0.796605 -3.29302
631 1 8.43583 13.2479 2.52174 -3.05224
632 1 6.6024 14.8833 3.05529 -2.70616
633 1 10.1925 12.8004 0.748122 -2.72054
634 1 1.65489 16.358 2.89377 -2.51598
635 1 -5.31519 -14.3857 4.60481 -2.82166
636 1 -7.10921 -14.269 6.32322 -2.65434
637 1 -1.19406 -13.4679 5.3951 -3.08727
638 1 -2.87306 -13.7059 7.38888 -3.07837
639 1 0.612397 -13.3911 3.52729 -3.19386
640 1 1.15717 -14.1714 6.02464 -2.8199
641 1 -0.598749 -14.4768 8.03574 -2.89086
642 1 5.35669 -13.1077 6.80058 -2.9393
643 1 3.62403 -13.3744 8.67343 -3.03675
644 1 6.16534 -13.6087 9.10501 -2.73161
645 1 -12.8564 -11.5772 4.26932 -2.87174
646 1 -11.1772 -13.4779 4.05921 -2.73153
647 1 -9.42373 -11.6074 4.24285 -3.48769
648 1 -9.6121 -13.665 5.91188 -2.97798
649 1 -11.2727 -11.9015 6.1142 -3.32328
650 1 -7.92847 -13.7242 4.02515 -3.24384
651 1 -5.89816 -12.1277 4.34543 -3.49157
652 1 -5.3677 -12.9525 6.79757 -3.23183
653 1 -7.7698 -12.0679 6.21181 -3.38905
654 1 -3.45553 -12.8073 4.7435 -3.27312
655 1 -1.72168 -11.1597 4.97846 -3.43158
656 1 -1.07346 -12.0537 7.34008 -3.47468
657 1 -3.40653 -11.4112 6.72878 -3.46275
658 1 0.574398 -11.8314 5.44386 -3.44441
659 1 2.38763 -11.6229 3.58948 -3.48947
660 1 1.35096 -12.6297 8.05979 -3.34049
661 1 0.734894 -10.1375 7.62205 -3.46692
662 1 3.11976 -12.4203 6.02852 -3.31421
663 1 4.87296 -10.7008 6.44883 -3.4664
664 1 5.616 -11.2949 8.91698 -3.41905
665 1 3.135 -10.777 8.2882 -3.48731
666 1 7.12431 -11.3404 7.06418 -3.33968
667 1 9.03569 -9.62942 7.01461 -3.3752
668 1 8.0607 -11.872 9.35031 -3.13617
669 1 7.42196 -9.4264 8.89853 -3.502
670 1 9.61942 -11.7814 7.5028 -2.6892
671 1 11.6331 -9.99281 7.41201 -2.82831
672 1 9.96706 -10.1275 9.4397 -3.35679
673 1 -14.661 -9.67885 4.19442 -2.73054
674 1 -12.88 -8.19767 4.56322 -3.40621
675 1 -13.0246 -9.94418 6.32093 -3.31424
676 1 -14.7279 -8.21469 6.36877 -3.0645
677 1 -11.1608 -9.93508 4.30498 -3.4419
678 1 -9.19973 -8.45572 4.54786 -3.51115
679 1 -9.42544 -10.268 6.334 -3.5161
680 1 -11.0516 -8.39096 6.45207 -3.49755
681 1 -7.50958 -10.1929 4.43684 -3.498
682 1 -5.64898 -8.49293 4.65389 -3.52851
683 1 -5.92697 -10.4699 6.39337 -3.49081
684 1 -7.46783 -8.66898 6.49667 -3.4873
685 1 -4.1132 -10.4759 4.35133 -3.49268
686 1 -2.23321 -8.65628 4.62985 -3.52733
687 1 -1.63421 -9.46782 6.9957 -3.50779
688 1 -3.98183 -8.70256 6.43457 -3.51891
689 1 0.1819 -9.40262 5.26245 -3.47086
690 1 1.65713 -9.22876 3.3086 -3.48685
691 1 2.57109 -10.0395 5.6357 -3.50079
692 1 0.212065 -7.81841 7.131 -3.49846
693 1 4.24092 -9.88169 3.75671 -3.51379
694 1 6.19255 -8.14214 3.97369 -3.47894
695 1 4.97238 -8.88757 8.47131 -3.43265
696 1 4.39309 -8.23269 5.87554 -3.52443
697 1 6.72784 -8.81865 6.44985 -3.49824
698 1 8.51311 -7.07996 6.59714 -3.48949
699 1 9.17369 -7.74829 9.27399 -3.46069
700 1 6.79834 -7.117 8.41618 -3.48696
701 1 10.8555 -7.61812 7.18884 -3.47506
702 1 12.7757 -5.85051 7.24119 -3.31065
703 1 11.7568 -8.45903 9.56412 -3.29164
704 1 10.9487 -6.05404 9.17525 -3.50525
705 1 13.269 -8.03921 7.72053 -2.72876
706 1 13.6943 -6.46399 9.671 -3.05134
707 1 -16.252 -4.68277 4.70812 -2.95117
708 1 -16.2617 -6.27454 6.73611 -2.76602
709 1 -14.6471 -6.56805 4.53146 -3.34847
710 1 -12.7177 -4.74424 4.88136 -3.51099
711 1 -12.8717 -6.569 6.59539 -3.53164
712 1 -14.4832 -4.73543 6.82115 -3.37597
713 1 -10.958 -6.61345 4.78577 -3.50952
714 1 -9.11409 -4.81836 4.80683 -3.51641
715 1 -9.14119 -6.79029 6.59042 -3.49976
716 1 -10.8232 -4.87494 6.61202 -3.50867
717 1 -7.42815 -6.77166 4.88043 -3.44865
718 1 -5.72769 -5.14717 4.94896 -3.4491
719 1 -5.76308 -6.96463 6.83095 -3.49623
720 1 -7.3533 -5.12324 6.9156 -3.48526
721 1 -3.84899 -6.69897 4.77103 -3.51037
722 1 -2.17033 -6.45778 2.87125 -3.50979
723 1 -2.12887 -6.92321 6.66762 -3.47872
724 1 -3.86776 -5.34026 6.88685 -3.47815
725 1 -0.459462 -8.38176 2.68107 -3.46741
726 1 1.31438 -6.72743 2.75122 -3.41141
727 1 2.00862 -7.55955 5.20115 -3.51084
728 1 -0.433631 -6.93422 4.67334 -3.4968
729 1 3.66707 -7.47186 3.43025 -3.49758
730 1 5.46219 -5.7792 3.80412 -3.46086
731 1 6.18375 -6.55016 6.02763 -3.42898
732 1 3.74817 -5.76966 5.53128 -3.47765
733 1 7.85947 -6.28119 4.18124 -3.49643
734 1 9.5196 -4.42431 4.41968 -3.50898
735 1 8.46608 -5.25377 8.55789 -3.45935
736 1 7.82699 -4.78326 6.30278 -3.47273
737 1 10.2971 -5.17021 6.81816 -3.51826
738 1 12.0677 -3.40415 6.96909 -3.48646