ITEM: TIMESTEP
90000
ITEM: NUMBER OF ATOMS
3804
ITEM: BOX BOUNDS ss ss pp
-1.7689722830109385e+01 1.7767282409420410e+01
-1.7372387779561684e+01 1.7381344353143991e+01
-1.9521000000000002e+00 4.5332100000000004e+01
ITEM: ATOMS id type x y z c_peratom
1 1 -5.20052 -15.6288 45.4383 -2.97478
2 1 -6.8617 -15.9311 0.0497005 -2.62984
3 1 -1.91063 -15.7154 45.2451 -3.12774
4 1 -3.51899 -15.7984 0.0196379 -3.00166
5 1 0.0563899 -17.1755 45.2514 -2.38131
6 1 2.03238 -15.6817 -1.71734 -3.11726
7 1 -0.0447903 -15.7267 -0.128469 -3.15277
8 1 5.30727 -15.5844 -2.00357 -2.99546
9 1 3.93486 -15.5534 0.000293729 -3.04393
10 1 6.95377 -15.6189 0.0317176 -2.70504
11 1 -12.15 -12.3489 45.2475 -2.80838
12 1 -10.4354 -14.0239 45.3762 -2.73078
13 1 -8.83727 -12.2249 -1.95052 -3.39671
14 1 -8.79127 -14.0126 -0.0577447 -3.10545
15 1 -10.541 -12.3837 0.125838 -3.31225
16 1 -7.20915 -14.0267 -1.96947 -3.3623
17 1 -5.3647 -12.2529 -1.9646 -3.48326
18 1 -5.40935 -14.0397 -0.0495562 -3.42636
19 1 -7.09759 -12.3311 0.154689 -3.42859
20 1 -3.60229 -13.9446 45.3465 -3.41077
21 1 -1.717 -12.2676 45.2359 -3.49812
22 1 -1.84865 -14.0369 0.0211364 -3.44286
23 1 -3.48751 -12.232 0.117834 -3.49823
24 1 -0.00846348 -14.0962 -1.94143 -3.50848
25 1 1.70768 -12.2041 -1.8712 -3.51097
26 1 1.82682 -13.975 -0.0727903 -3.44001
27 1 -0.0595704 -12.3483 0.0363034 -3.47162
28 1 3.65091 -13.7383 -1.89514 -3.4699
29 1 5.40531 -11.9155 45.3546 -3.47916
30 1 5.53757 -13.7558 0.0328884 -3.42835
31 1 3.45064 -12.1166 -0.0038795 -3.52247
32 1 7.14042 -13.8235 -1.94526 -3.39855
33 1 8.91081 -12.1775 45.4308 -3.40001
34 1 8.79151 -13.8292 0.0234245 -3.11718
35 1 7.20754 -11.9914 -0.0403485 -3.43241
36 1 10.4366 -13.9374 45.2841 -2.66267
37 1 12.1377 -12.2099 -1.84002 -2.845
38 1 10.4957 -12.1489 0.0761794 -3.31463
39 1 -13.822 -10.4761 45.2974 -2.74401
40 1 -12.2852 -8.63567 -1.79565 -3.36741
41 1 -12.2705 -10.6198 0.0814153 -3.30574
42 1 -14.0129 -8.74365 0.114846 -3.1132
43 1 -10.6369 -10.5771 -1.88976 -3.4639
44 1 -8.87996 -8.67212 -1.84408 -3.50909
45 1 -8.94823 -10.6307 0.148813 -3.47084
46 1 -10.6096 -8.98 0.150194 -3.37922
47 1 -7.237 -10.5622 -1.77081 -3.4524
48 1 -5.35915 -8.79709 45.3389 -3.51374
49 1 -5.41584 -10.6874 -0.0225499 -3.45426
50 1 -7.16087 -8.84218 0.14359 -3.48754
51 1 -3.48609 -10.6482 45.2616 -3.46583
52 1 -1.89468 -8.79917 -1.879 -3.4941
53 1 -1.62477 -10.5341 0.135882 -3.47975
54 1 -3.63529 -8.92896 -0.0121716 -3.50863
55 1 0.0488267 -10.348 -1.88432 -3.45361
56 1 1.64886 -8.65874 -1.79517 -3.4178
57 1 1.57631 -10.3865 0.131541 -3.52317
58 1 -0.124037 -8.61682 0.207243 -3.47489
59 1 3.42098 -10.3091 45.4684 -3.50569
60 1 5.34569 -8.75777 -1.88178 -3.45931
61 1 5.38622 -10.4596 -0.0347645 -3.42308
62 1 3.57924 -8.86246 0.305831 -3.46687
63 1 7.23435 -10.3928 45.3625 -3.47188
64 1 8.84828 -8.48055 45.3748 -3.48872
65 1 8.89013 -10.2179 0.106984 -3.50675
66 1 7.04377 -8.56702 0.123634 -3.50407
67 1 10.5577 -10.2607 -1.95209 -3.52238
68 1 12.3547 -8.48329 -1.97681 -3.46129
69 1 12.297 -10.3661 0.0410145 -3.34464
70 1 10.6553 -8.50327 0.115639 -3.47701
71 1 13.9755 -10.3115 45.2976 -2.72699
72 1 14.2591 -8.87523 -0.106526 -3.01141
73 1 -15.6262 -5.22377 -2.14874 -2.99395
74 1 -15.7382 -6.9171 0.134808 -2.64275
75 1 -14.1232 -7.15175 45.181 -3.29169
76 1 -12.3323 -5.25496 -1.8621 -3.47763
77 1 -12.2233 -7.05635 0.0667152 -3.48394
78 1 -13.9937 -5.26949 0.0752811 -3.44419
79 1 -10.6116 -6.93431 -1.91291 -3.40272
80 1 -8.9275 -5.20544 -1.81132 -3.46318
81 1 -8.88868 -7.18318 0.167662 -3.4489
82 1 -10.6272 -5.01255 0.0527452 -3.50639
83 1 -7.0089 -6.95582 -1.90624 -3.49084
84 1 -5.31289 -5.27942 -1.85037 -3.45042
85 1 -5.29239 -7.03664 0.053909 -3.50115
86 1 -7.1335 -5.33286 0.0913441 -3.51133
87 1 -3.66472 -7.0296 -2.01726 -3.46716
88 1 -1.86351 -5.18231 -1.99232 -3.51178
89 1 -2.0815 -7.00724 -0.0518831 -3.48544
90 1 -3.72423 -5.19375 0.197871 -3.44821
91 1 -0.104629 -7.00454 -2.022 -3.50941
92 1 1.69589 -5.2694 -1.80295 -3.46687
93 1 1.71662 -6.91886 0.0335063 -3.47948
94 1 -0.18988 -5.30653 -0.00436151 -3.47469
95 1 3.44828 -6.87262 -1.86227 -3.46317
96 1 5.14433 -5.13247 45.3432 -3.46305
97 1 5.2073 -6.92947 0.250082 -3.489
98 1 3.4646 -5.20264 0.18422 -3.46615
99 1 7.00718 -6.82845 -1.79807 -3.47561
100 1 8.85635 -5.01644 -1.91319 -3.51246
101 1 8.78727 -6.7596 0.155749 -3.49166
102 1 7.05853 -5.06292 0.201655 -3.45713
103 1 10.5984 -6.82624 -2.08349 -3.43204
104 1 12.4857 -5.27341 -1.87531 -3.53579
105 1 12.538 -6.97706 0.0540221 -3.4661
106 1 10.6778 -5.06279 -0.0422801 -3.51223
107 1 14.3739 -7.05184 45.2942 -3.34242
108 1 15.86 -5.16422 -1.7688 -2.94893
109 1 15.9581 -6.80839 0.021745 -2.71339
110 1 14.1648 -5.18958 0.0875957 -3.43685
111 1 -15.8034 -2.02611 45.2479 -3.0419
112 1 -15.935 -3.5423 -0.187743 -2.9347
113 1 -13.9155 -3.48983 45.2774 -3.38372
114 1 -12.3778 -1.6612 -1.79172 -3.45068
115 1 -12.4775 -3.34261 -0.00992649 -3.46464
116 1 -14.3314 -1.71775 0.178763 -3.40104
117 1 -10.5788 -3.3705 -1.92786 -3.53487
118 1 -8.67356 -1.69128 45.3993 -3.52907
119 1 -8.69253 -3.36571 -0.0534501 -3.46824
120 1 -10.4726 -1.74359 0.0119712 -3.47086
121 1 -7.08739 -3.6359 -1.97579 -3.45346
122 1 -5.32134 -1.74205 -1.91457 -3.51902
123 1 -5.4257 -3.41454 0.0784775 -3.51873
124 1 -7.01275 -1.54057 0.103919 -3.42845
125 1 -3.53866 -3.42099 -1.95258 -3.46564
126 1 -1.75916 -1.83489 -1.9111 -3.48987
127 1 -1.84995 -3.58988 0.0266421 -3.46887
128 1 -3.44533 -1.79509 0.080204 -3.49173
129 1 -0.0146862 -3.54748 -1.84651 -3.48246
130 1 1.56574 -1.74359 -1.94694 -3.49449
131 1 1.55645 -3.50745 0.0692332 -3.47183
132 1 -0.197746 -1.66534 0.0644843 -3.51075
133 1 3.35744 -3.4609 -1.88854 -3.50173
134 1 5.14505 -1.76027 45.4018 -3.47207
135 1 5.20665 -3.54958 0.136442 -3.48716
136 1 3.27326 -1.95254 0.106608 -3.4439
137 1 7.06504 -3.43505 -1.71851 -3.46222
138 1 8.90336 -1.82764 -1.90116 -3.45103
139 1 8.82476 -3.32084 0.0799118 -3.52341
140 1 6.96103 -1.65461 0.0827385 -3.44995
141 1 10.7293 -3.28143 45.2684 -3.48701
142 1 12.7448 -1.55389 45.1824 -3.52325
143 1 12.3651 -3.33646 -0.0609808 -3.43367
144 1 10.7598 -1.59906 -0.042939 -3.43101
145 1 14.2659 -3.58461 -2.04562 -3.31112
146 1 15.9451 -1.77414 -1.86238 -3.14882
147 1 16.1159 -3.36329 -0.0284613 -2.99042
148 1 14.1709 -1.69346 0.00756787 -3.4792
149 1 -17.2566 -0.261673 -1.82907 -2.42162
150 1 -16.0677 1.81276 45.3843 -3.00461
151 1 -15.9572 -0.0364666 0.0742214 -3.09694
152 1 -14.4712 0.0175777 -1.92178 -3.47435
153 1 -12.3233 1.64725 -1.81525 -3.49031
154 1 -12.2005 -0.000998508 0.030339 -3.44769
155 1 -14.0814 1.66414 0.0782691 -3.45568
156 1 -10.5483 -0.0532993 -2.06216 -3.4958
157 1 -8.70072 1.66483 45.3258 -3.50392
158 1 -8.82709 0.0740777 0.0117256 -3.48754
159 1 -10.4826 1.8101 -0.00429929 -3.47891
160 1 -6.95145 0.0706405 45.2793 -3.46874
161 1 -5.11774 1.72368 -1.87986 -3.51639
162 1 -5.13017 -0.0205378 0.109519 -3.51798
163 1 -6.9622 1.83142 -0.0456637 -3.51445
164 1 -3.42183 0.00300165 -1.88775 -3.51247
165 1 -1.87133 1.89639 45.2681 -3.47807
166 1 -1.80863 0.00752963 0.0759586 -3.42901
167 1 -3.43664 1.86394 -0.00872284 -3.48298
168 1 -0.11339 0.0666906 -1.91016 -3.50661
169 1 1.61208 1.71688 -1.85552 -3.49881
170 1 1.75004 -0.0282912 0.0741393 -3.49616
171 1 -0.133688 1.7048 0.0783127 -3.47193
172 1 3.36158 -0.0454288 -2.04756 -3.45603
173 1 5.25103 1.57105 -1.82299 -3.49667
174 1 5.03693 -0.203048 0.00379019 -3.47582
175 1 3.42168 1.67757 0.101905 -3.46277
176 1 6.93988 -0.224508 -1.82817 -3.42353
177 1 8.76612 1.53857 45.3336 -3.47466
178 1 8.82378 -0.188575 0.0510113 -3.44573
179 1 6.89938 1.5384 0.047647 -3.51407
180 1 10.628 -0.104973 45.2922 -3.52625
181 1 12.4515 1.69894 45.3303 -3.43916
182 1 12.4391 0.18121 -0.115641 -3.46563
183 1 10.3928 1.57 0.218311 -3.42008
184 1 14.4995 0.184182 -2.07953 -3.42341
185 1 16.1759 1.85412 45.3727 -3.08773
186 1 16.0878 0.118898 0.222032 -3.17945
187 1 14.2881 1.81817 -0.0957841 -3.49399
188 1 17.6544 0.0788733 -1.80465 -2.31412
189 1 -15.7551 5.24672 45.1892 -3.00172
190 1 -15.59 3.55145 -0.157551 -3.00431
191 1 -14.0987 3.35303 45.2594 -3.42124
192 1 -12.3858 5.2803 45.2437 -3.50353
193 1 -12.3557 3.4462 0.0778425 -3.48554
194 1 -14.0915 5.30904 -0.123296 -3.33356
195 1 -10.4324 3.4802 45.2458 -3.50876
196 1 -8.83679 5.33004 -2.11356 -3.45024
197 1 -8.82954 3.58657 -0.0864653 -3.51159
198 1 -10.7065 5.12061 -0.0496207 -3.4333
199 1 -6.97692 3.48668 -2.00616 -3.5224
200 1 -5.25739 5.31127 -1.93099 -3.46332
201 1 -5.24498 3.42811 0.0125985 -3.46411
202 1 -6.99481 5.31961 -0.144119 -3.52689
203 1 -3.53378 3.72372 45.3669 -3.48403
204 1 -1.78056 5.44613 -1.92433 -3.45446
205 1 -1.67557 3.47446 -0.0290105 -3.45625
206 1 -3.51923 5.20124 0.174731 -3.50158
207 1 -0.138346 3.61659 -1.91713 -3.47931
208 1 1.77506 5.16507 -1.79867 -3.4822
209 1 1.69968 3.52626 0.107186 -3.52511
210 1 0.059246 5.46274 0.0194411 -3.49922
211 1 3.51294 3.34376 -1.69349 -3.4501
212 1 5.24245 5.0665 45.3298 -3.4826
213 1 5.27228 3.33369 0.0735608 -3.48392
214 1 3.63637 5.21776 0.042246 -3.4818
215 1 6.99693 3.40398 45.2641 -3.48232
216 1 8.89042 4.96731 -2.1609 -3.47378
217 1 8.71829 3.25183 0.0506973 -3.44914
218 1 7.13556 5.05712 -0.122659 -3.50362
219 1 10.5066 3.095 45.1771 -3.43078
220 1 12.2282 5.02715 45.1137 -3.52051
221 1 12.1761 3.30821 -0.0467838 -3.48276
222 1 10.479 4.92227 -0.068138 -3.4478
223 1 14.1954 3.4633 45.202 -3.43428
224 1 16.0007 4.91712 45.2361 -2.92725
225 1 16.1133 3.69235 -0.0810712 -2.96424
226 1 14.1193 5.04439 -0.106943 -3.40327
227 1 -15.7362 6.95475 -0.0770895 -2.69891
228 1 -14.1795 7.22814 45.2367 -3.32163
229 1 -12.2447 8.666 45.3048 -3.36933
230 1 -12.3927 6.93117 -0.0808172 -3.48303
231 1 -14.0917 8.75812 0.0413785 -3.11309
232 1 -10.6566 6.90675 45.2059 -3.42281
233 1 -8.87316 8.82574 45.3232 -3.50948
234 1 -9.11942 6.90255 -0.0914796 -3.50375
235 1 -10.5854 8.90452 0.00890181 -3.4396
236 1 -7.07902 7.03929 -1.96977 -3.48727
237 1 -5.27918 8.67642 45.3862 -3.48177
238 1 -5.18141 7.11544 0.0375916 -3.51227
239 1 -7.20329 8.70378 0.0132451 -3.51695
240 1 -3.48224 6.99912 -2.03257 -3.43956
241 1 -1.6648 8.78711 45.4087 -3.44521
242 1 -1.78299 7.12983 0.120298 -3.43697
243 1 -3.38955 8.92609 -0.0101833 -3.45877
244 1 0.180646 7.01588 45.3261 -3.49296
245 1 1.81005 8.77856 45.5236 -3.49035
246 1 1.79981 7.11143 0.2113 -3.47661
247 1 -0.0625297 8.65086 0.0686562 -3.4415
248 1 3.59271 7.04665 -1.98296 -3.49037
249 1 5.4169 8.80892 45.3292 -3.48647
250 1 5.32483 6.8622 -0.0268374 -3.47137
251 1 3.7041 8.81427 -0.0996059 -3.50594
252 1 7.04956 6.80684 45.2648 -3.55739
253 1 8.87017 8.5515 -1.88873 -3.39234
254 1 8.90211 6.82447 0.0116439 -3.45931
255 1 7.19568 8.5466 -0.0659157 -3.50234
256 1 10.4068 6.87365 45.2685 -3.40869
257 1 12.3435 8.46053 -1.84383 -3.43027
258 1 12.3345 6.70789 -0.00835078 -3.48882
259 1 10.5782 8.54946 0.209374 -3.4937
260 1 14.1951 6.75936 45.2733 -3.30585
261 1 15.8269 6.71293 -0.269811 -2.71125
262 1 14.0084 8.60371 -0.0240295 -3.1233
263 1 -13.9126 10.3124 45.372 -2.74833
264 1 -12.3024 12.2926 -1.8066 -2.78495
265 1 -12.3559 10.6232 0.049501 -3.32076
266 1 -10.6446 10.5365 -2.04103 -3.46671
267 1 -8.79052 12.2465 -1.91783 -3.4895
268 1 -8.89584 10.4428 0.125668 -3.40484
269 1 -10.3895 12.4009 0.127576 -3.30141
270 1 -7.06513 10.3766 -1.90638 -3.47352
271 1 -5.43543 12.2576 -1.81562 -3.49858
272 1 -5.4064 10.3998 0.0388341 -3.53326
273 1 -7.10102 12.2844 0.00734289 -3.51944
274 1 -3.59968 10.5585 45.3154 -3.53563
275 1 -1.76364 12.27 45.4038 -3.44684
276 1 -1.65601 10.5073 0.117701 -3.45116
277 1 -3.59613 12.1416 0.0638942 -3.51295
278 1 -0.0958891 10.4404 -1.85756 -3.42568
279 1 1.70053 12.093 -1.9538 -3.48234
280 1 1.93349 10.4745 0.0297248 -3.45807
281 1 0.254839 12.2388 0.136474 -3.47704
282 1 3.78627 10.7016 -1.80444 -3.45681
283 1 5.53845 12.3573 45.3513 -3.49962
284 1 5.65743 10.575 -0.0775016 -3.51364
285 1 3.63746 12.1723 0.00402871 -3.42693
286 1 7.29348 10.3193 -1.98441 -3.46572
287 1 9.00039 12.0694 45.139 -3.38209
288 1 8.91295 10.4167 0.0714243 -3.53822
289 1 7.35695 12.3215 0.0019547 -3.48691
290 1 10.6124 10.2841 -1.98956 -3.49287
291 1 12.318 12.1783 -1.78884 -2.83832
292 1 12.2263 10.5022 0.00423924 -3.28528
293 1 10.6114 12.3135 0.00504938 -3.29635
294 1 13.9585 10.1946 45.3326 -2.73738
295 1 -10.4857 14.1043 -1.9937 -2.64648
296 1 -8.76291 14.1779 0.239669 -3.04202
297 1 -7.21129 14.1353 -1.98489 -3.28952
298 1 -5.28231 15.542 -1.82515 -3.01053
299 1 -5.22718 13.8652 0.104907 -3.41428
300 1 -6.95828 15.6587 0.295188 -2.68611
301 1 -3.52005 13.8694 -1.84643 -3.45064
302 1 -1.81736 15.7992 -1.78171 -3.12137
303 1 -1.70485 13.855 -0.0997151 -3.46618
304 1 -3.4845 15.6884 0.0423819 -3.03876
305 1 0.107088 13.9361 -1.85358 -3.50656
306 1 2.01762 15.7179 -2.01645 -3.07686
307 1 1.99353 13.9108 0.122341 -3.43503
308 1 0.0273378 15.5324 0.0579344 -3.21834
309 1 3.68659 13.824 -1.92741 -3.45167
310 1 5.60138 15.4738 -1.92446 -3.01215
311 1 5.37869 13.9179 0.0798079 -3.34469
312 1 3.72673 15.6627 -0.012522 -3.01689
313 1 7.54869 14.0021 -1.92994 -3.34955
314 1 8.96371 14.1263 0.209986 -3.03742
315 1 6.98357 15.5382 0.0578154 -2.73428
316 1 10.4263 13.9909 -1.90365 -2.76528
317 1 0.195151 17.2512 -1.77788 -2.37187
318 1 -5.15056 -15.7201 2.06895 -3.02213
319 1 -6.91315 -15.8646 4.05118 -2.67898
320 1 -1.98508 -15.7339 2.03467 -3.13087
321 1 -3.52642 -15.6659 3.98776 -3.02771
322 1 0.130991 -17.0784 1.92139 -2.42754
323 1 2.20071 -15.7445 1.96793 -3.0741
324 1 0.0239789 -15.6323 3.83766 -3.16377
325 1 5.27928 -15.6643 2.0545 -2.97418
326 1 3.84328 -15.5341 4.04178 -3.06144
327 1 6.68707 -15.7156 4.18509 -2.7437
328 1 -12.2267 -12.5459 2.08008 -2.81981
329 1 -10.3089 -14.1441 1.95378 -2.72046
330 1 -8.8203 -12.4261 2.18275 -3.39184
331 1 -8.91222 -14.4527 4.01339 -3.05533
332 1 -10.638 -12.4227 3.96457 -3.33797
333 1 -7.09674 -14.2964 1.93306 -3.35311
334 1 -5.50339 -12.3684 2.07742 -3.48951
335 1 -5.44633 -14.1304 4.02593 -3.3757
336 1 -7.24464 -12.4845 4.07378 -3.46713
337 1 -3.52648 -13.8188 2.07873 -3.41192
338 1 -1.70805 -12.3583 1.94137 -3.46911
339 1 -1.751 -14.1138 3.97057 -3.36837
340 1 -3.50323 -12.2775 4.01246 -3.49926
341 1 0.0889742 -14.2059 1.7903 -3.49631
342 1 1.7473 -12.2954 2.05786 -3.47212
343 1 1.90785 -14.1548 4.0524 -3.37041
344 1 0.0464863 -12.4279 3.99786 -3.49831
345 1 3.63915 -13.8016 1.86822 -3.44508
346 1 5.43315 -12.0899 1.94893 -3.47877
347 1 5.42985 -13.5993 3.96399 -3.4222
348 1 3.34885 -12.2379 3.96006 -3.45508
349 1 7.19274 -13.9936 2.07723 -3.36081
350 1 8.76123 -12.0733 2.13511 -3.38624
351 1 8.83349 -14.1773 4.19856 -3.01967
352 1 7.31772 -12.2523 4.02833 -3.38874
353 1 10.367 -13.7659 2.01467 -2.72735
354 1 12.1727 -12.0849 2.03972 -2.76767
355 1 10.4073 -12.1832 4.1312 -3.35873
356 1 -13.9863 -10.5969 1.98612 -2.67793
357 1 -12.3694 -8.72109 2.00094 -3.47377
358 1 -12.3642 -10.614 3.81001 -3.27567
359 1 -14.0129 -8.85497 3.97605 -3.09558
360 1 -10.5492 -10.715 2.15731 -3.45751
361 1 -9.00483 -8.84151 1.88197 -3.43046
362 1 -8.85765 -10.5309 3.90142 -3.50419
363 1 -10.6321 -8.81605 3.88395 -3.49609
364 1 -7.16781 -10.6833 2.04903 -3.47578
365 1 -5.33581 -9.04822 2.02776 -3.45542
366 1 -5.34998 -10.7528 4.00478 -3.48682
367 1 -7.01031 -8.82069 3.90682 -3.50276
368 1 -3.57641 -10.6498 2.15826 -3.43267
369 1 -1.93204 -9.0042 2.22935 -3.39593
370 1 -1.66353 -10.4819 4.17333 -3.47235
371 1 -3.71504 -8.89844 3.95722 -3.4751
372 1 -0.00893586 -10.446 2.20529 -3.46234
373 1 1.62479 -8.63396 2.12431 -3.50888
374 1 1.59522 -10.5512 4.0542 -3.46698
375 1 -0.0840973 -8.72866 4.069 -3.46739
376 1 3.39392 -10.5347 2.08971 -3.4866
377 1 5.20217 -8.58224 2.21917 -3.49496
378 1 5.37705 -10.749 4.02023 -3.49666
379 1 3.3663 -8.84147 3.97566 -3.50545
380 1 7.12019 -10.3071 2.06042 -3.47722
381 1 8.87168 -8.60069 2.10485 -3.49871
382 1 8.76531 -10.1584 4.03032 -3.49528
383 1 6.92046 -8.57841 4.03578 -3.45698
384 1 10.6033 -10.4187 2.02913 -3.44454
385 1 12.275 -8.4506 2.00303 -3.34408
386 1 12.1515 -10.1242 4.037 -3.30225
387 1 10.5292 -8.5036 4.05317 -3.37396
388 1 13.9462 -10.0854 1.9551 -2.72633
389 1 14.0222 -8.42684 3.86974 -3.11685
390 1 -15.9221 -5.02146 1.86604 -2.89587
391 1 -15.6024 -6.85881 3.87524 -2.67227
392 1 -14.092 -6.99432 2.07824 -3.31237
393 1 -12.282 -5.33117 1.98518 -3.47431
394 1 -12.3201 -6.96481 4.02865 -3.51065
395 1 -14.0095 -5.19651 4.12226 -3.34309
396 1 -10.6003 -6.97174 2.24691 -3.40142
397 1 -8.94653 -5.21008 1.95864 -3.50447
398 1 -8.78364 -7.12646 3.91272 -3.4909
399 1 -10.5191 -5.19424 4.05892 -3.50135
400 1 -7.07193 -7.19135 1.92155 -3.50004
401 1 -5.27808 -5.31377 2.09898 -3.48963
402 1 -5.26274 -7.04719 4.14432 -3.45975
403 1 -7.07174 -5.30201 3.85677 -3.49227
404 1 -3.6494 -7.29064 1.93341 -3.46819
405 1 -2.03632 -5.31128 2.11622 -3.46597
406 1 -2.00948 -7.02518 4.0846 -3.53849
407 1 -3.7539 -5.05941 4.05871 -3.46431
408 1 -0.328004 -7.00791 2.06421 -3.49026
409 1 1.56455 -5.35479 2.14611 -3.48112
410 1 1.68217 -7.03956 4.19571 -3.46497
411 1 -0.13995 -5.33978 4.10239 -3.47601
412 1 3.33934 -6.89488 1.97435 -3.43715
413 1 5.20768 -5.25722 2.17494 -3.48199
414 1 5.18852 -6.89632 4.06798 -3.45775
415 1 3.35622 -5.30877 4.13175 -3.45141
416 1 7.09785 -6.81787 2.12096 -3.48817
417 1 8.88284 -5.01714 2.0209 -3.51175
418 1 8.68437 -6.96167 3.96267 -3.39617
419 1 7.03931 -5.30963 4.05886 -3.48456
420 1 10.7625 -6.74032 2.01231 -3.40658
421 1 12.4574 -5.0593 1.94293 -3.47397
422 1 12.215 -6.89832 4.01908 -3.41661
423 1 10.3778 -5.18878 4.07768 -3.43068
424 1 14.359 -6.91584 1.93319 -3.33641
425 1 15.9892 -5.06819 1.84579 -2.97944
426 1 16.0237 -6.62647 3.99786 -2.628
427 1 14.2594 -5.08392 3.94304 -3.3846
428 1 -15.65 -1.85362 2.27787 -3.11894
429 1 -15.6889 -3.48682 4.18264 -3.00804
430 1 -14.0102 -3.57112 2.01215 -3.39746
431 1 -12.6229 -1.55157 2.0965 -3.51182
432 1 -12.3039 -3.55947 3.90125 -3.4667
433 1 -14.046 -1.79991 4.12899 -3.40535
434 1 -10.5926 -3.32893 1.99395 -3.52315
435 1 -8.59595 -1.62262 1.96331 -3.47668
436 1 -8.76871 -3.45889 3.80768 -3.4448
437 1 -10.5407 -1.70696 3.91349 -3.49541
438 1 -6.99047 -3.485 2.2509 -3.4142
439 1 -5.11725 -1.56516 2.11544 -3.42663
440 1 -5.2925 -3.24674 3.95786 -3.41682
441 1 -7.04996 -1.52446 3.87761 -3.51355
442 1 -3.62908 -3.33298 2.03773 -3.45226
443 1 -1.70217 -1.85923 2.14531 -3.49392
444 1 -1.8576 -3.34271 4.19678 -3.48227
445 1 -3.53292 -1.62174 4.26096 -3.42723
446 1 -0.230823 -3.75567 1.89402 -3.40501
447 1 1.48735 -2.004 2.10797 -3.45889
448 1 1.66516 -3.63579 4.13501 -3.43464
449 1 0.0474512 -1.80704 3.99923 -3.39784
450 1 3.36192 -3.61738 2.11987 -3.53024
451 1 5.21055 -1.69871 2.09127 -3.46561
452 1 5.12116 -3.53255 4.09463 -3.52078
453 1 3.28557 -1.94871 4.16026 -3.44278
454 1 6.85055 -3.46267 2.11506 -3.48052
455 1 8.71176 -1.68254 2.1577 -3.48104
456 1 8.90746 -3.41248 4.12407 -3.41853
457 1 7.08112 -1.82044 4.17501 -3.48882
458 1 10.6266 -3.2507 2.06337 -3.49802
459 1 12.5209 -1.78805 1.84151 -3.43862
460 1 12.376 -3.6791 4.06326 -3.41873
461 1 10.7807 -1.79977 4.08744 -3.47299
462 1 14.2419 -3.49237 1.96347 -3.37221
463 1 16.0719 -1.89953 1.89807 -3.08564
464 1 16.0155 -3.22699 4.00883 -3.07207
465 1 14.0195 -1.92972 3.89074 -3.32121
466 1 -17.2934 0.178596 2.20864 -2.5778
467 1 -16.1801 2.24427 1.82446 -3.10459
468 1 -15.8932 -0.0625977 4.0618 -3.10588
469 1 -14.4289 0.261993 2.16367 -3.49378
470 1 -12.192 1.64232 1.98729 -3.45395
471 1 -12.4334 0.169104 4.07072 -3.51202
472 1 -14.4258 1.94469 4.05888 -3.47945
473 1 -10.5412 -0.0539839 2.07842 -3.46672
474 1 -8.76731 1.78086 1.83002 -3.47681
475 1 -8.80873 0.226439 3.77204 -3.4722
476 1 -10.6354 1.79849 3.93869 -3.37331
477 1 -6.96008 0.198283 1.87562 -3.45432
478 1 -5.20016 1.80297 1.99759 -3.51572
479 1 -5.20834 0.123098 4.09886 -3.47224
480 1 -6.93768 1.77139 3.85356 -3.47916
481 1 -3.38984 -0.0212335 2.08164 -3.49829
482 1 -1.71607 1.88142 2.06396 -3.45767
483 1 -1.61406 -0.0558892 4.06719 -3.5102
484 1 -3.45917 1.8245 3.89486 -3.53325
485 1 -0.023265 -0.0165456 2.07963 -3.53908
486 1 1.65876 1.7575 2.01805 -3.4964
487 1 1.70376 -0.179126 4.14204 -3.42616
488 1 0.00593358 1.7798 4.12343 -3.50765
489 1 3.1237 -0.242333 2.12726 -3.46829
490 1 5.1195 1.62 1.96023 -3.49087
491 1 5.09415 -0.136994 4.16627 -3.50228
492 1 3.36281 1.61516 3.91247 -3.49116
493 1 6.93524 -0.0486288 2.17604 -3.43976
494 1 8.82147 1.65712 2.07188 -3.49896
495 1 8.90942 -0.0617439 4.14314 -3.48947
496 1 7.01089 1.59034 4.07735 -3.48866
497 1 10.6475 -0.144811 2.01674 -3.51366
498 1 12.4466 1.62521 1.95054 -3.50076
499 1 12.5139 -0.092349 4.05472 -3.44919
500 1 10.6242 1.76533 3.8653 -3.52455
501 1 14.4035 0.0237914 1.88802 -3.47615
502 1 15.8459 2.06173 1.89531 -3.06796
503 1 15.7019 -0.482989 4.36841 -3.05574
504 1 14.2787 1.54926 3.86379 -3.44088
505 1 17.0836 0.240082 2.72729 -2.53405
506 1 -15.7657 5.16317 1.94771 -3.0483
507 1 -15.8905 3.8843 4.02488 -3.04875
508 1 -13.9734 3.34641 1.959 -3.45044
509 1 -12.4564 5.22686 1.95848 -3.44771
510 1 -12.4227 3.20486 3.85302 -3.37834
511 1 -13.9028 5.11033 3.94323 -3.38217
512 1 -10.5194 3.53007 2.01312 -3.53307
513 1 -8.85957 5.31047 1.92458 -3.4543
514 1 -8.74893 3.42392 3.92166 -3.5038
515 1 -10.6989 5.22004 3.89999 -3.56924
516 1 -7.07624 3.49786 1.94297 -3.52134
517 1 -5.28792 5.13915 1.96224 -3.49675
518 1 -5.33208 3.59123 3.92695 -3.50757
519 1 -7.13279 5.20163 3.7813 -3.43972
520 1 -3.46288 3.48012 1.97284 -3.46785
521 1 -1.76844 5.28419 1.94109 -3.47154
522 1 -1.71208 3.59418 3.93683 -3.49616
523 1 -3.48513 5.21822 3.91229 -3.49156
524 1 -0.034464 3.51526 1.98469 -3.46657
525 1 1.85248 5.27159 2.11099 -3.47987
526 1 1.77629 3.49323 4.06603 -3.46338
527 1 0.153042 5.19405 4.10233 -3.46528
528 1 3.52202 3.55843 1.96996 -3.50834
529 1 5.40881 5.3004 1.95397 -3.52052
530 1 5.18333 3.54093 3.93629 -3.49408
531 1 3.54274 5.24164 4.07503 -3.46269
532 1 6.92792 3.33108 2.01008 -3.50783
533 1 8.74028 5.06601 1.94852 -3.52052
534 1 8.67545 3.45529 3.95418 -3.51881
535 1 6.89689 5.24198 3.98545 -3.3777
536 1 10.6088 3.38054 2.00825 -3.49435
537 1 12.2266 5.23199 2.03972 -3.44882
538 1 12.5139 3.52978 3.85674 -3.54465
539 1 10.6032 5.23061 4.03949 -3.48381
540 1 13.9468 3.46996 1.76058 -3.38542
541 1 15.9263 5.049 1.99257 -2.95378
542 1 15.5458 3.66954 3.95282 -3.04006
543 1 14.0656 5.48069 3.91399 -3.34381
544 1 -15.6451 6.79723 3.82226 -2.77452
545 1 -14.0817 7.03386 1.87884 -3.3751
546 1 -12.3706 8.91602 2.0259 -3.40656
547 1 -12.4657 7.01957 3.9926 -3.42542
548 1 -14.331 8.67822 3.95476 -2.99695
549 1 -10.9002 6.95729 1.98539 -3.45813
550 1 -8.89138 8.51613 1.99064 -3.52813
551 1 -8.93343 6.99092 3.91551 -3.42366
552 1 -10.6299 8.57807 3.78554 -3.42705
553 1 -7.11009 6.78602 1.946 -3.40978
554 1 -5.32593 8.61841 1.9698 -3.50345
555 1 -5.29868 6.94663 3.77056 -3.5054
556 1 -7.18548 8.70352 3.78407 -3.4978
557 1 -3.50172 6.90139 2.07004 -3.46239
558 1 -1.7295 8.8956 2.02964 -3.50102
559 1 -1.69445 6.95389 4.1019 -3.5252
560 1 -3.55824 8.75261 3.88772 -3.47173
561 1 0.14736 7.0503 2.10692 -3.50566
562 1 1.90803 8.80384 2.06024 -3.48517
563 1 1.79842 7.08045 3.92894 -3.46719
564 1 0.0844533 8.76211 4.04667 -3.48534
565 1 3.57735 6.99717 2.00575 -3.47486
566 1 5.40653 8.57465 1.8299 -3.47924
567 1 5.35276 6.83974 4.17437 -3.27986
568 1 3.73686 8.59866 3.92684 -3.45727
569 1 7.21718 6.98056 1.92949 -3.41605
570 1 8.82479 8.6689 2.08104 -3.47946
571 1 8.76984 6.78996 3.92091 -3.49659
572 1 6.94187 8.52658 3.95425 -3.49484
573 1 10.5384 6.87937 2.11261 -3.44386
574 1 12.3002 8.54521 2.04113 -3.39527
575 1 12.2723 7.05241 4.23053 -3.40582
576 1 10.6187 8.73965 4.00951 -3.51117
577 1 14.183 6.98601 1.89801 -3.32056
578 1 15.8054 7.08077 3.94425 -2.6502
579 1 14.0941 8.78287 3.78963 -3.10855
580 1 -14.0885 10.5463 1.92733 -2.65258
581 1 -12.2781 12.2364 2.10254 -2.86278
582 1 -12.3151 10.5545 3.90694 -3.32778
583 1 -10.5903 10.5202 1.90508 -3.45773
584 1 -8.71308 12.1638 1.86696 -3.43575
585 1 -8.9743 10.4059 3.86087 -3.4783
586 1 -10.3752 12.2405 3.86918 -3.3113
587 1 -7.07398 10.4564 2.01486 -3.47341
588 1 -5.40438 12.1552 1.96657 -3.48593
589 1 -5.37708 10.4258 3.88946 -3.51107
590 1 -7.08517 12.2323 4.017 -3.51755
591 1 -3.60485 10.5199 2.08607 -3.50038
592 1 -1.66852 12.1691 1.93073 -3.52375
593 1 -1.85504 10.3626 4.0203 -3.45675
594 1 -3.46271 12.2655 3.87024 -3.48155
595 1 0.127495 10.4504 2.24393 -3.45048
596 1 2.01035 12.148 1.95592 -3.50643
597 1 1.95233 10.5333 4.12085 -3.50984
598 1 0.00501469 12.204 3.94855 -3.50643
599 1 3.76489 10.4761 1.89948 -3.50267
600 1 5.53156 12.3183 2.00007 -3.51387
601 1 5.41533 10.4984 3.90532 -3.52088
602 1 3.71973 12.2325 3.84163 -3.4552
603 1 7.10293 10.4356 1.90281 -3.48222
604 1 8.84823 12.1853 1.99262 -3.47224
605 1 8.69176 10.3944 4.02687 -3.48396
606 1 7.25115 12.2608 3.89244 -3.44955
607 1 10.7586 10.4446 2.02094 -3.47849
608 1 12.066 12.3765 1.98586 -2.80079
609 1 12.365 10.5401 4.02157 -3.28355
610 1 10.5611 12.1007 4.09245 -3.31133
611 1 13.6793 10.4436 1.88829 -2.77421
612 1 -10.6191 14.0014 1.94275 -2.69067
613 1 -8.76427 14.0433 3.71384 -3.08988
614 1 -6.96828 14.0042 2.04359 -3.32793
615 1 -5.19439 15.6762 1.96299 -2.97906
616 1 -5.23576 13.893 4.00854 -3.38774
617 1 -6.66717 15.8655 3.99546 -2.68229
618 1 -3.51008 13.9012 1.84033 -3.46502
619 1 -1.72645 15.6504 1.88135 -3.14361
620 1 -1.74682 13.9332 3.7606 -3.43149
621 1 -3.61229 15.5459 4.07374 -3.02346
622 1 0.171957 13.9345 1.8812 -3.47632
623 1 2.00314 15.6202 1.9061 -3.13031
624 1 1.85124 13.9182 3.89873 -3.50597
625 1 0.069003 15.7761 3.66397 -3.17379
626 1 3.85663 14.1219 1.96559 -3.40482
627 1 5.42963 15.9508 2.11165 -2.90598
628 1 5.39982 13.9934 3.98434 -3.43763
629 1 3.65123 15.7869 4.06114 -3.00936
630 1 7.2313 14.2439 2.10499 -3.35676
631 1 8.8805 13.9391 4.13811 -3.07069
632 1 7.0035 15.7184 4.07636 -2.72454
633 1 10.3802 13.962 2.26373 -2.70391
634 1 0.165428 17.2801 1.63835 -2.35861
635 1 -5.14185 -15.7792 5.92777 -3.0233
636 1 -6.58381 -15.8852 7.88454 -2.73275
637 1 -1.89291 -15.9277 5.83665 -3.03767
638 1 -3.73892 -15.7511 7.93961 -3.06446
639 1 0.0633411 -17.2916 5.87944 -2.35469
640 1 2.00021 -16.0271 5.78785 -2.98499
641 1 0.316158 -15.8841 7.95636 -3.06403
642 1 5.14395 -15.8238 6.17972 -2.92732
643 1 3.54698 -15.8336 8.21498 -3.0133
644 1 6.6719 -15.5941 8.09534 -2.72301
645 1 -12.311 -12.3784 5.94038 -2.80616
646 1 -10.529 -14.15 5.98171 -2.66607
647 1 -8.93265 -12.4003 5.86864 -3.41334
648 1 -8.54214 -14.095 7.85032 -3.01925
649 1 -10.4399 -12.3849 7.98614 -3.34169
650 1 -7.20307 -14.206 5.8598 -3.3334
651 1 -5.23944 -12.4538 5.99784 -3.51898
652 1 -5.31167 -13.9571 7.88624 -3.36734
653 1 -7.15189 -12.366 7.95817 -3.35451
654 1 -3.38198 -14.0783 5.9558 -3.38303
655 1 -1.6662 -12.4478 5.98372 -3.49952
656 1 -1.62823 -14.2489 7.78537 -3.48405
657 1 -3.43988 -12.442 7.85929 -3.50003
658 1 0.225434 -14.2965 6.09076 -3.47588
659 1 1.65934 -12.321 6.17105 -3.46841
660 1 1.72626 -14.0574 8.0981 -3.40638
661 1 -0.0346217 -12.316 8.00284 -3.50867
662 1 3.58413 -13.8757 6.06142 -3.49161
663 1 5.31524 -12.0928 6.0293 -3.47738
664 1 5.20887 -13.8614 8.07566 -3.37932
665 1 3.42803 -12.1743 8.00552 -3.49319
666 1 6.94885 -14.085 6.13358 -3.35648
667 1 8.81077 -12.2579 6.03077 -3.39903
668 1 8.69912 -14.0994 8.10571 -3.0471
669 1 6.95591 -12.174 7.98847 -3.4989
670 1 10.6059 -13.8045 6.04639 -2.65602
671 1 12.2755 -11.9725 6.0377 -2.8367
672 1 10.4901 -12.2537 7.97074 -3.31244
673 1 -13.9777 -10.4151 5.94998 -2.71055
674 1 -12.2504 -8.7122 5.90635 -3.43691
675 1 -12.4469 -10.6952 7.94266 -3.31412
676 1 -13.9271 -8.71658 7.93013 -3.11313
677 1 -10.6372 -10.6157 6.05154 -3.48491
678 1 -8.93692 -8.80505 5.89291 -3.48471
679 1 -8.80959 -10.5499 7.84884 -3.44091
680 1 -10.6256 -8.92074 8.10652 -3.40782
681 1 -7.15343 -10.7711 5.83094 -3.48276
682 1 -5.47348 -8.95907 5.96614 -3.5106
683 1 -5.34241 -10.6231 7.89241 -3.54577
684 1 -7.19706 -8.84632 7.96602 -3.4401
685 1 -3.52094 -10.6159 6.10434 -3.51724
686 1 -1.92677 -8.73218 6.06368 -3.51473
687 1 -1.8488 -10.5797 7.98473 -3.46507
688 1 -3.53306 -8.88457 8.00826 -3.43909
689 1 -0.159516 -10.4686 6.15179 -3.45619
690 1 1.43783 -8.69351 6.07075 -3.47281
691 1 1.76004 -10.4691 7.77334 -3.41348
692 1 -0.201491 -8.74374 8.02378 -3.51745
693 1 3.3777 -10.5211 5.93158 -3.49176
694 1 5.2192 -8.88718 5.93092 -3.49117
695 1 5.24885 -10.4227 8.0116 -3.52286
696 1 3.32926 -8.71482 7.82825 -3.43915
697 1 7.15389 -10.439 6.12132 -3.49812
698 1 8.73795 -8.47988 6.05848 -3.48019
699 1 8.80257 -10.5271 8.14428 -3.44391
700 1 7.00676 -8.70143 7.95301 -3.50738
701 1 10.4382 -10.38 5.95566 -3.51452
702 1 12.4835 -8.66588 5.94574 -3.36225
703 1 12.2894 -10.5439 7.92049 -3.30286
704 1 10.4319 -8.73143 7.95156 -3.50647
705 1 14.0542 -10.2634 5.82049 -2.59202
706 1 14.3112 -8.62349 8.10154 -3.05493
707 1 -15.8322 -5.20087 6.05808 -2.93466
708 1 -15.8885 -6.75306 8.11518 -2.67109
709 1 -14.0969 -6.94341 6.07648 -3.33467
710 1 -12.3066 -5.35176 5.98789 -3.48977
711 1 -12.1993 -7.18619 7.96059 -3.41659
712 1 -13.8364 -5.35135 8.05401 -3.47656
713 1 -10.5428 -7.07728 5.91449 -3.44587
714 1 -8.78411 -5.17986 6.05368 -3.49343
715 1 -8.92785 -7.10112 7.8749 -3.51754
716 1 -10.5245 -5.19716 7.92624 -3.49762
717 1 -7.17197 -7.09383 5.85832 -3.48955
718 1 -5.42295 -5.20628 6.04603 -3.46833
719 1 -5.36183 -7.1742 8.01633 -3.52402
720 1 -6.96689 -5.19682 7.90689 -3.42004
721 1 -3.73992 -7.01249 6.09355 -3.46034
722 1 -2.11243 -5.21571 5.98622 -3.47785
723 1 -2.04198 -6.99216 7.92347 -3.49425
724 1 -3.66073 -5.20129 8.06784 -3.50505
725 1 -0.214446 -6.79956 5.94513 -3.46844
726 1 1.7552 -5.24059 6.11575 -3.50115
727 1 1.69266 -7.04641 8.03873 -3.47364
728 1 -0.0969146 -5.1908 7.96489 -3.49226
729 1 3.56086 -6.92506 5.98521 -3.48737
730 1 5.21956 -5.21763 6.05583 -3.49294
731 1 5.24558 -7.10335 7.92991 -3.47336
732 1 3.4089 -5.26156 7.97382 -3.50507
733 1 6.74258 -7.07593 6.03119 -3.42487
734 1 8.6612 -5.32134 6.01679 -3.5318
735 1 8.7695 -6.78661 8.09115 -3.41671
736 1 7.01464 -5.36825 8.08601 -3.41709
737 1 10.5262 -6.93113 6.10751 -3.45622
738 1 12.3865 -5.40095 5.97516 -3.49243