ITEM: TIMESTEP
142000
ITEM: NUMBER OF ATOMS
3804
ITEM: BOX BOUNDS ss ss pp
-1.7849621165769658e+01 1.7772544435926822e+01
-1.7583790368019578e+01 1.7650109496682237e+01
-3.0799799999999999e+00 4.6459980000000002e+01
ITEM: ATOMS id type x y z c_peratom
1 1 -5.67271 -14.5686 -2.71334 -2.97289
2 1 -7.12955 -14.7324 -0.649703 -2.74553
3 1 -2.05078 -15.0115 -2.53107 -3.06288
4 1 -4.00104 -15.1042 -0.611639 -2.92994
5 1 -0.330743 -16.5907 -2.6862 -2.51539
6 1 1.47055 -16.4287 45.131 -2.82434
7 1 -0.26908 -15.0307 -0.696855 -3.22709
8 1 5.75613 -15.3999 45.2785 -2.81723
9 1 3.73657 -15.4971 -2.20531 -2.8256
10 1 7.08275 -13.8874 0.00784899 -2.73016
11 1 -12.4412 -11.2984 -2.52844 -2.68202
12 1 -10.5249 -12.6182 -2.68039 -2.73209
13 1 -8.89354 -10.9682 -2.42757 -3.34309
14 1 -8.99879 -13.0037 -0.44677 -3.07672
15 1 -10.9238 -11.1649 -0.465085 -3.29358
16 1 -7.48451 -12.9515 -2.55835 -3.29949
17 1 -5.38348 -11.2398 -2.3568 -3.5346
18 1 -5.30614 -12.9691 -0.58326 -3.43895
19 1 -7.18718 -11.3452 -0.445854 -3.49759
20 1 -3.66966 -13.0828 -2.48695 -3.43995
21 1 -2.08453 -12.983 45.1419 -3.44838
22 1 -1.97791 -13.1548 -0.461175 -3.45936
23 1 -3.66437 -11.2658 -0.411093 -3.46215
24 1 -0.545511 -14.8715 44.9463 -3.33348
25 1 1.28984 -13.0642 45.1837 -3.51084
26 1 1.49904 -14.8021 -2.52521 -3.25984
27 1 -0.347892 -13.3066 -2.43136 -3.44173
28 1 3.29597 -14.6263 45.0502 -3.37548
29 1 5.11319 -12.9957 45.1494 -3.4416
30 1 5.60002 -13.8394 -2.11228 -3.21773
31 1 3.08224 -13.0821 -2.37519 -3.45244
32 1 7.37481 -13.5096 45.6247 -3.07934
33 1 9.17647 -11.9634 45.7591 -3.19709
34 1 9.08065 -12.2061 0.159252 -3.05832
35 1 7.40141 -11.9991 -1.72854 -3.39788
36 1 10.573 -11.9743 -1.70845 -2.72621
37 1 12.5176 -10.3206 -1.60567 -2.8199
38 1 10.6998 -10.3757 0.369088 -3.35977
39 1 -14.0381 -9.18422 -2.22408 -2.67946
40 1 -12.2093 -7.3223 -2.19495 -3.44273
41 1 -12.5334 -9.27465 -0.387328 -3.27631
42 1 -14.3395 -7.50947 -0.342126 -3.03634
43 1 -10.7604 -9.3434 -2.22247 -3.4868
44 1 -8.94386 -7.61752 -2.21243 -3.539
45 1 -8.96535 -9.46532 -0.557275 -3.47135
46 1 -10.648 -7.69291 -0.0773179 -3.48472
47 1 -7.02677 -9.3416 -2.38411 -3.45281
48 1 -5.22153 -9.33111 45.3902 -3.50496
49 1 -5.36036 -9.58875 -0.365714 -3.48108
50 1 -7.06941 -7.83225 -0.214492 -3.5158
51 1 -3.53872 -11.0387 45.2312 -3.44665
52 1 -1.80854 -9.27698 45.2463 -3.50884
53 1 -1.92665 -11.4274 -2.27238 -3.49884
54 1 -3.55666 -9.48454 -2.2543 -3.53884
55 1 -0.18493 -11.21 45.0885 -3.45157
56 1 1.49521 -9.52306 45.3018 -3.46021
57 1 1.24943 -11.4375 -2.35576 -3.49402
58 1 -0.194775 -9.46883 -2.3483 -3.44938
59 1 3.22825 -11.3666 45.3409 -3.51945
60 1 4.94609 -9.54608 45.3573 -3.50693
61 1 5.00311 -11.3255 -2.33242 -3.44929
62 1 3.1767 -9.61348 -2.22161 -3.53914
63 1 6.87973 -11.1245 45.2262 -3.47325
64 1 8.51679 -9.38296 45.551 -3.48462
65 1 9.10718 -10.1429 -1.76609 -3.40935
66 1 6.62151 -9.71406 -2.16973 -3.45857
67 1 10.9178 -10.1241 45.8504 -3.33783
68 1 12.6938 -8.3688 46.1365 -3.32775
69 1 12.5313 -8.59098 0.491536 -3.29179
70 1 10.9163 -8.53489 -1.47012 -3.47244
71 1 14.2047 -8.49306 -1.39813 -2.7101
72 1 14.2068 -6.93421 0.795046 -3.07239
73 1 -15.5766 -3.70456 -2.16536 -3.00002
74 1 -15.5428 -5.45759 -0.166598 -2.72695
75 1 -14.0367 -5.54636 -2.03802 -3.30659
76 1 -12.2218 -3.7613 -2.00317 -3.50116
77 1 -12.4132 -5.93902 0.0518004 -3.50052
78 1 -13.8925 -3.90599 -0.0289977 -3.31409
79 1 -10.5341 -5.64541 -2.07909 -3.45355
80 1 -8.74202 -5.76241 45.5292 -3.45703
81 1 -8.69072 -5.94062 -0.0785531 -3.4947
82 1 -10.5298 -4.14798 -0.0214712 -3.49
83 1 -7.10153 -7.57856 45.4627 -3.50759
84 1 -5.3278 -5.79298 45.598 -3.45753
85 1 -5.37419 -7.66829 -2.19212 -3.48169
86 1 -7.02156 -5.82459 -1.83549 -3.40489
87 1 -3.54042 -7.52683 45.3837 -3.50225
88 1 -1.67252 -5.81189 45.5582 -3.50806
89 1 -1.77866 -7.72327 -2.15594 -3.48318
90 1 -3.56696 -5.9984 -2.02135 -3.53199
91 1 0.0772931 -7.64142 45.3225 -3.46506
92 1 1.78407 -5.81162 45.7121 -3.50995
93 1 1.46137 -7.70431 -2.09919 -3.51065
94 1 -0.150265 -5.81787 -2.04439 -3.444
95 1 3.24766 -7.65285 45.6405 -3.48878
96 1 4.84526 -5.67291 45.5813 -3.51215
97 1 4.89385 -7.75731 -2.08016 -3.50521
98 1 3.27435 -5.90789 -1.88026 -3.5018
99 1 6.56353 -7.68186 45.5625 -3.51762
100 1 8.37645 -5.9599 45.6303 -3.48683
101 1 8.38962 -7.85331 -2.07466 -3.4893
102 1 6.72105 -5.96165 -2.05913 -3.50411
103 1 10.3236 -7.5742 45.7805 -3.49581
104 1 12.2468 -5.97273 45.7615 -3.43175
105 1 12.6592 -6.75384 -1.36392 -3.41619
106 1 10.3206 -6.15622 -1.86629 -3.47647
107 1 14.5216 -6.74383 46.2754 -3.17854
108 1 16.1663 -4.83526 46.5643 -2.82741
109 1 16.0134 -5.22812 0.879994 -2.69235
110 1 14.4301 -5.01264 -1.13455 -3.35284
111 1 -15.7779 -0.264863 -1.81932 -2.95422
112 1 -15.6097 -2.25419 -0.0900816 -3.0366
113 1 -13.9248 -1.76663 -2.13492 -3.41953
114 1 -12.109 -1.92731 45.5515 -3.48587
115 1 -12.1407 -2.3148 0.161303 -3.46368
116 1 -13.9388 -0.397163 0.211116 -3.3888
117 1 -10.22 -3.8564 45.426 -3.49606
118 1 -8.46239 -2.10452 45.7125 -3.52581
119 1 -8.57876 -4.10188 -2.10474 -3.44462
120 1 -10.2537 -2.26283 -1.95956 -3.47385
121 1 -6.94317 -4.13736 45.5665 -3.46687
122 1 -5.16429 -2.24397 45.7765 -3.49866
123 1 -5.34927 -4.1184 -1.84671 -3.48594
124 1 -6.8854 -2.26034 -1.87142 -3.50111
125 1 -3.59508 -4.12959 45.7982 -3.4761
126 1 -1.70933 -2.18725 45.7292 -3.49662
127 1 -1.8217 -4.13726 -1.88208 -3.44736
128 1 -3.53452 -2.39873 -1.84662 -3.51085
129 1 0.0276199 -4.01806 45.7678 -3.49067
130 1 1.5659 -2.18919 45.9878 -3.46002
131 1 1.54554 -4.19581 -1.77779 -3.45523
132 1 -0.190782 -2.4702 -1.68817 -3.48896
133 1 3.31414 -3.83317 45.9257 -3.48127
134 1 5.12122 -2.13557 45.8541 -3.4519
135 1 5.06941 -4.14036 -1.77559 -3.47642
136 1 3.2469 -2.53034 -1.5739 -3.44205
137 1 6.73173 -4.01575 45.808 -3.50055
138 1 8.71385 -2.50798 45.8787 -3.44485
139 1 8.58055 -4.10869 -1.89239 -3.4404
140 1 6.79073 -2.52901 -1.77132 -3.43974
141 1 10.2588 -4.3706 45.7479 -3.49638
142 1 12.3408 -2.28865 45.9229 -3.48166
143 1 12.0583 -4.43591 -1.84563 -3.45321
144 1 10.4405 -2.58963 -1.79276 -3.48062
145 1 13.8434 -4.24168 45.9257 -3.42434
146 1 15.4847 -2.40654 46.1022 -3.19639
147 1 16.3034 -3.24011 -0.922792 -2.89751
148 1 13.7298 -2.59003 -1.55617 -3.4901
149 1 -18.0411 1.80741 41.1982 -2.589
150 1 -15.4041 1.72137 45.8081 -3.09186
151 1 -15.6956 1.05806 0.278877 -3.04684
152 1 -13.8467 -0.108594 45.6436 -3.35426
153 1 -11.7697 1.37486 46.0919 -3.41038
154 1 -11.9109 -0.535142 -1.74893 -3.4544
155 1 -13.6866 1.12705 -1.8945 -3.40673
156 1 -10.2536 -0.328977 45.7793 -3.4362
157 1 -8.53886 1.45169 46.1202 -3.49024
158 1 -8.62774 -0.449352 -1.67354 -3.47932
159 1 -10.2766 1.34983 -1.60015 -3.45669
160 1 -6.77317 -0.200312 46.004 -3.50412
161 1 -5.12907 1.60556 46.0441 -3.45912
162 1 -5.11677 -0.462203 -1.68758 -3.49446
163 1 -7.0096 1.35541 -1.49457 -3.48249
164 1 -3.4325 -0.235023 45.9313 -3.52307
165 1 -1.62922 1.41715 46.2009 -3.46881
166 1 -1.75124 -0.564281 -1.59708 -3.51457
167 1 -3.54404 1.36517 -1.61801 -3.50609
168 1 0.0132103 -0.387656 45.9353 -3.49222
169 1 1.78746 1.3963 46.2353 -3.53271
170 1 1.64258 -0.732225 -1.51858 -3.48938
171 1 0.0512454 1.10855 -1.52403 -3.47848
172 1 3.43267 -0.555968 46.0452 -3.44885
173 1 5.04773 1.20066 46.0773 -3.47988
174 1 5.19868 -0.676987 -1.52622 -3.53664
175 1 3.46886 1.31966 -1.38616 -3.48916
176 1 7.02368 -0.503655 45.9992 -3.5372
177 1 8.95541 1.20988 46.2163 -3.4677
178 1 8.63398 -0.864931 -1.61289 -3.51255
179 1 6.99768 1.08798 -1.58575 -3.46519
180 1 10.4461 -0.637808 46.2706 -3.45561
181 1 12.1919 1.14407 46.1831 -3.52036
182 1 12.2237 -0.533798 -1.41009 -3.43437
183 1 10.4673 0.959108 -1.1933 -3.4438
184 1 14.0283 -0.538113 45.998 -3.47806
185 1 15.5742 1.56711 46.0293 -3.18277
186 1 15.4602 -0.86411 -1.31004 -3.28506
187 1 13.9672 1.10833 -1.36646 -3.47676
188 1 16.9698 -0.493916 46.3536 -2.60852
189 1 -15.6275 4.63339 46.2718 -3.02328
190 1 -15.2002 2.86025 -1.46773 -3.04247
191 1 -13.5207 3.21481 46.0952 -3.42059
192 1 -11.8869 5.00697 46.1229 -3.46393
193 1 -12.0356 3.05923 -1.47843 -3.54633
194 1 -13.6771 5.00684 -1.60321 -3.43426
195 1 -10.1842 3.24855 46.071 -3.50632
196 1 -8.50028 5.17766 46.1579 -3.45124
197 1 -8.69165 3.17416 -1.40357 -3.46234
198 1 -10.2147 5.06808 -1.472 -3.52082
199 1 -6.85396 3.24165 46.2748 -3.49581
200 1 -5.04738 5.05534 46.1111 -3.45533
201 1 -5.22875 3.17635 -1.34624 -3.48249
202 1 -7.12175 4.9654 -1.30849 -3.48445
203 1 -3.2899 3.2229 46.1572 -3.47543
204 1 -1.64659 5.00699 46.2755 -3.51898
205 1 -1.65512 3.01157 -1.34764 -3.46261
206 1 -3.35921 4.59873 -1.36756 -3.36334
207 1 -0.000389569 3.19103 46.2105 -3.49466
208 1 1.78672 4.89394 46.4117 -3.46224
209 1 1.68649 3.03738 -1.21079 -3.46221
210 1 0.032937 4.69676 -1.32621 -3.4155
211 1 3.52584 3.20662 46.337 -3.48945
212 1 5.31949 4.88207 46.2044 -3.47985
213 1 5.38795 2.84006 -1.30814 -3.46603
214 1 3.63544 4.69086 -1.18865 -3.51684
215 1 6.9681 3.03431 46.0647 -3.50243
216 1 8.7399 4.80097 -3.04245 -3.46444
217 1 8.69013 2.80805 -1.34759 -3.49735
218 1 7.04253 4.69781 -1.28481 -3.48798
219 1 10.5604 3.0191 46.3342 -3.50234
220 1 12.177 4.91319 46.5165 -3.46397
221 1 12.1754 2.74566 -1.21161 -3.50261
222 1 10.3521 4.71166 -1.19394 -3.47812
223 1 13.7317 3.09959 46.4324 -3.45188
224 1 15.8134 4.41107 46.2734 -2.98539
225 1 15.3682 3.11121 -1.1868 -3.15381
226 1 13.6902 4.76698 -0.953959 -3.38474
227 1 -15.4817 6.59891 -1.50041 -2.78355
228 1 -13.7001 6.65558 46.1695 -3.37303
229 1 -12.1301 8.53423 46.1613 -3.38587
230 1 -11.9919 6.77927 -1.63184 -3.43322
231 1 -13.9079 8.33519 -1.21675 -3.09272
232 1 -10.133 6.90808 46.1481 -3.51413
233 1 -8.37058 8.62838 -3.24443 -3.49453
234 1 -8.51981 6.94338 -1.37101 -3.49506
235 1 -10.4096 8.63291 -1.21629 -3.46335
236 1 -6.76382 6.75148 -3.31811 -3.44953
237 1 -5.07346 8.51533 -3.31368 -3.4651
238 1 -4.98914 6.3481 -1.33287 -3.48849
239 1 -6.4863 8.35274 -1.25216 -3.49169
240 1 -3.45149 6.87535 46.1906 -3.40827
241 1 -1.66946 8.429 46.5635 -3.49152
242 1 -1.62974 6.52558 -1.20491 -3.54647
243 1 -3.4078 8.41772 -1.19891 -3.50902
244 1 0.23847 6.68189 46.5527 -3.44626
245 1 1.84123 8.48587 46.4482 -3.46245
246 1 1.66987 6.48439 -1.11675 -3.44393
247 1 0.105011 8.35671 -1.09721 -3.53018
248 1 3.48694 6.60171 46.5674 -3.50348
249 1 5.26953 8.41668 -3.00028 -3.5009
250 1 5.22345 6.53772 -1.2823 -3.47889
251 1 3.34334 8.29582 -1.0772 -3.50271
252 1 7.12403 6.59448 -3.19848 -3.48862
253 1 8.76129 8.4944 -2.97242 -3.48637
254 1 8.67275 6.46441 -0.945992 -3.48737
255 1 6.91719 8.27365 -1.01903 -3.49072
256 1 10.4328 6.67424 46.4653 -3.4962
257 1 12.5421 8.03547 46.7169 -3.3986
258 1 11.9573 6.46879 -0.975412 -3.43242
259 1 10.4263 8.29942 -0.969653 -3.48394
260 1 14.155 6.24669 46.4259 -3.33779
261 1 15.796 5.66159 -1.26997 -2.72374
262 1 14.2165 7.43124 -0.829701 -3.08589
263 1 -14.4397 8.9695 45.6835 -2.85146
264 1 -12.7541 10.8617 45.9169 -2.85003
265 1 -12.2973 10.2471 -1.18153 -3.17149
266 1 -10.3488 10.0789 46.4534 -3.4179
267 1 -8.59989 11.9523 -2.85678 -3.31778
268 1 -8.40784 10.1297 -1.20419 -3.52014
269 1 -10.3526 11.6305 -1.13529 -3.23319
270 1 -6.68879 10.5096 -3.10167 -3.43331
271 1 -4.97042 12.0883 -2.85061 -3.46802
272 1 -4.96229 10.1953 -1.06966 -3.46096
273 1 -6.68363 11.93 -0.967354 -3.44997
274 1 -3.2496 10.3331 -2.90941 -3.51457
275 1 -1.63145 12.1516 -2.83525 -3.49475
276 1 -1.64792 10.1969 -1.00067 -3.49295
277 1 -3.27233 12.0379 -0.964869 -3.50088
278 1 -0.0634868 10.2841 -2.80692 -3.50064
279 1 1.86603 12.0777 -2.75462 -3.52472
280 1 1.78554 10.2574 -1.00899 -3.47506
281 1 0.129396 11.9624 -0.865477 -3.49982
282 1 3.59596 10.1653 -2.86768 -3.49201
283 1 5.31445 12.0044 -2.80427 -3.53035
284 1 5.19261 10.0343 -1.01241 -3.48152
285 1 3.55397 11.9224 -0.790957 -3.4097
286 1 6.97571 10.1282 -2.72523 -3.44299
287 1 8.86078 11.6255 -2.6637 -3.46091
288 1 8.78477 10.061 -0.661696 -3.4355
289 1 6.95495 11.7553 -0.786412 -3.53427
290 1 10.7684 10.0146 -2.73178 -3.44433
291 1 12.7647 11.2986 -2.48696 -2.82389
292 1 12.5793 9.63308 -0.764999 -3.28646
293 1 10.8596 11.3893 -0.729585 -3.3309
294 1 14.3277 9.30815 -2.34749 -2.63501
295 1 -10.8992 12.4661 45.9874 -2.745
296 1 -8.53282 13.4836 -0.674104 -3.0079
297 1 -6.86465 13.6039 -2.86546 -3.26028
298 1 -5.11615 15.4095 -2.7175 -2.87119
299 1 -5.07786 13.6957 -0.888709 -3.44968
300 1 -6.84101 15.3896 -0.774215 -2.68664
301 1 -3.27668 13.9512 -2.6615 -3.39388
302 1 -1.54977 15.7224 -2.49862 -3.14404
303 1 -1.69196 13.953 -0.848326 -3.41947
304 1 -3.43538 15.6878 -0.723459 -3.0202
305 1 0.172091 13.9304 -2.37882 -3.47943
306 1 2.12968 15.5387 -2.39673 -3.129
307 1 2.01786 13.824 -0.609396 -3.41325
308 1 0.274623 15.6928 -0.601187 -3.24107
309 1 3.64678 13.7269 -2.67466 -3.40318
310 1 5.53834 15.3449 -2.43988 -2.99615
311 1 5.06856 13.5969 -0.667481 -3.28985
312 1 3.64535 15.4574 -0.385008 -2.93428
313 1 7.34338 13.6002 -2.50146 -3.29842
314 1 9.06909 13.4089 -0.79193 -3.07717
315 1 6.98738 14.9238 -0.475297 -2.75284
316 1 10.9273 13.0715 -2.68401 -2.76232
317 1 0.429256 17.2665 -2.44104 -2.35192
318 1 -5.67319 -14.8706 1.34971 -2.96005
319 1 -7.26695 -14.8412 3.37815 -2.70229
320 1 -2.07718 -15.2614 1.17147 -2.94828
321 1 -3.97125 -15.1149 3.11421 -2.8694
322 1 2.07484 -15.5475 -0.0711345 -2.9742
323 1 3.73595 -15.5325 1.74687 -2.52008
324 1 0.312873 -15.6079 1.69652 -2.73129
325 1 5.57785 -14.0022 1.96532 -3.09473
326 1 3.83253 -14.0976 3.96961 -3.12428
327 1 7.06978 -14.23 3.96679 -2.6877
328 1 -12.7733 -10.9954 1.55002 -2.82772
329 1 -10.8461 -12.7067 1.44032 -2.75377
330 1 -8.82243 -11.3138 1.3477 -3.38738
331 1 -9.2749 -12.9797 3.32312 -3.12633
332 1 -10.9617 -11.1612 3.39235 -3.24431
333 1 -7.22994 -13.1486 1.35087 -3.3098
334 1 -5.32286 -11.5069 1.55199 -3.48056
335 1 -5.5635 -13.2412 3.30291 -3.35179
336 1 -7.24453 -11.4448 3.36102 -3.45499
337 1 -3.76491 -13.288 1.45515 -3.44717
338 1 -2.01251 -11.5534 1.51527 -3.50359
339 1 -2.10501 -13.6379 3.35344 -3.33841
340 1 -3.83346 -11.6879 3.47918 -3.42848
341 1 -0.357322 -13.345 1.48626 -3.41224
342 1 1.3766 -13.2054 -0.524812 -3.48571
343 1 2.10756 -14.0286 1.96342 -3.24111
344 1 -0.44761 -11.6723 3.60008 -3.53494
345 1 3.84965 -13.8883 -0.0255506 -3.36371
346 1 5.54523 -12.0713 0.107133 -3.43912
347 1 5.36904 -12.3044 3.83135 -3.39135
348 1 3.86389 -12.1804 2.03843 -3.4628
349 1 7.35412 -12.2326 1.9138 -3.35938
350 1 9.03355 -10.4889 2.2183 -3.43487
351 1 8.94536 -12.5588 4.07188 -3.07026
352 1 7.28764 -10.6335 4.08463 -3.50907
353 1 10.5575 -12.4115 2.07467 -2.69452
354 1 12.3358 -10.6926 2.36145 -2.79411
355 1 10.5811 -10.7503 4.20139 -3.3279
356 1 -14.5536 -9.07566 1.67468 -2.65807
357 1 -12.4586 -7.75086 1.80052 -3.46667
358 1 -12.7629 -9.42858 3.47446 -3.28581
359 1 -14.3693 -7.50937 3.67981 -3.1045
360 1 -10.6144 -9.66675 1.50257 -3.46565
361 1 -8.85379 -7.99615 1.66592 -3.50403
362 1 -9.02134 -9.90876 3.49185 -3.44336
363 1 -10.5981 -7.94752 3.58759 -3.50245
364 1 -7.02902 -9.67162 1.55024 -3.48545
365 1 -5.34561 -7.90298 1.72936 -3.51316
366 1 -5.38474 -9.9104 3.51237 -3.46736
367 1 -7.02989 -8.02496 3.61084 -3.51495
368 1 -3.65661 -9.72418 1.57461 -3.48247
369 1 -1.73574 -9.58639 -0.18479 -3.51388
370 1 -2.04749 -9.74696 3.59431 -3.43457
371 1 -3.71253 -8.11419 3.82447 -3.50221
372 1 -0.285771 -11.5751 -0.334031 -3.36909
373 1 1.30099 -9.73447 -0.206791 -3.48992
374 1 1.31171 -11.666 1.66331 -3.50503
375 1 -0.287572 -9.77064 1.85051 -3.48339
376 1 3.29594 -11.3548 -0.325107 -3.47672
377 1 4.91459 -9.60565 -0.217564 -3.47555
378 1 5.5902 -10.4332 2.12215 -3.49113
379 1 3.08058 -9.85983 1.8305 -3.42168
380 1 7.4067 -10.1944 0.243177 -3.52967
381 1 9.05909 -8.39003 0.239988 -3.43862
382 1 9.04325 -8.78845 4.31925 -3.51177
383 1 7.42184 -8.60072 2.26922 -3.49082
384 1 10.7762 -8.7081 2.45715 -3.51827
385 1 12.4501 -6.89088 2.72037 -3.41369
386 1 12.4006 -8.8371 4.55451 -3.29641
387 1 10.744 -6.9759 4.61337 -3.5093
388 1 13.8935 -8.8332 2.59477 -2.7475
389 1 14.1361 -7.11521 4.60124 -3.09841
390 1 -15.6055 -3.89383 1.88133 -3.06471
391 1 -16.0656 -5.56891 3.76056 -2.71832
392 1 -14.3109 -5.94621 1.90949 -3.3146
393 1 -12.2504 -4.23047 2.01688 -3.51969
394 1 -12.3196 -6.17697 3.76265 -3.49712
395 1 -14.0436 -4.24088 3.88621 -3.4445
396 1 -10.4569 -6.05315 1.88954 -3.51044
397 1 -8.75844 -4.20877 1.95442 -3.48294
398 1 -8.86047 -6.3246 3.84508 -3.48284
399 1 -10.4367 -4.45255 4.02425 -3.50632
400 1 -7.06776 -6.03333 1.9272 -3.52595
401 1 -5.3406 -6.01494 -0.081969 -3.47415
402 1 -5.45304 -6.16358 3.78673 -3.44996
403 1 -7.07662 -4.48298 4.17631 -3.41451
404 1 -3.69825 -7.83392 -0.202163 -3.50799
405 1 -1.88215 -5.96984 0.0186632 -3.52923
406 1 -2.11651 -7.91785 1.73673 -3.48812
407 1 -3.72438 -6.10869 1.96209 -3.47
408 1 -0.126397 -7.84201 -0.103388 -3.46161
409 1 1.58792 -5.98896 0.030776 -3.50598
410 1 1.57149 -8.18266 1.7608 -3.40164
411 1 -0.25351 -6.19494 1.97976 -3.53083
412 1 3.07922 -7.99347 -0.171051 -3.502
413 1 4.90515 -6.20288 -0.00126568 -3.51278
414 1 4.88361 -8.19644 1.90608 -3.48695
415 1 3.25554 -6.16635 1.95397 -3.4414
416 1 6.69468 -7.90449 -0.122189 -3.46258
417 1 8.35731 -6.05132 -0.0433159 -3.48318
418 1 8.95504 -6.81698 2.49276 -3.48361
419 1 6.5381 -6.25489 2.08307 -3.46447
420 1 10.8167 -6.78911 0.546067 -3.46978
421 1 12.782 -5.02719 0.59965 -3.46478
422 1 12.526 -5.17464 4.59628 -3.43966
423 1 10.8721 -5.08774 2.56697 -3.45149
424 1 14.3802 -5.27849 2.72377 -3.32113
425 1 16.0838 -3.48469 2.76464 -2.94083
426 1 15.9892 -5.22231 4.65206 -2.67846
427 1 14.2458 -3.5221 4.74954 -3.43416
428 1 -15.7617 -1.01455 2.1362 -3.10777
429 1 -15.6876 -2.53106 4.05783 -3.05395
430 1 -13.7684 -2.33477 2.03067 -3.4087
431 1 -12.0778 -0.621475 2.24923 -3.49071
432 1 -12.1871 -2.65667 4.18538 -3.46822
433 1 -13.8771 -0.933653 4.17828 -3.45664
434 1 -10.501 -2.51969 2.18462 -3.50417
435 1 -8.76464 -2.43464 0.203545 -3.49826
436 1 -8.6418 -2.64431 4.04628 -3.4957
437 1 -10.4152 -0.784621 4.22637 -3.51006
438 1 -6.94991 -4.213 0.0619926 -3.47378
439 1 -5.39931 -2.30237 0.115167 -3.4788
440 1 -5.32298 -4.30655 1.96844 -3.47715
441 1 -6.9569 -2.50426 2.07209 -3.43817
442 1 -3.71555 -4.2545 0.00213079 -3.48969
443 1 -2.02749 -2.57678 0.139343 -3.47846
444 1 -2.01134 -4.37417 2.05309 -3.49802
445 1 -3.62951 -2.53927 1.95971 -3.49261
446 1 -0.142711 -4.27641 0.146785 -3.50783
447 1 1.59222 -2.53604 0.289638 -3.49268
448 1 1.60376 -4.54016 2.04817 -3.48067
449 1 -0.180751 -2.6494 2.15473 -3.50991
450 1 3.42778 -4.28723 0.203012 -3.51273
451 1 5.11548 -2.46838 0.296351 -3.44958
452 1 4.95758 -4.56375 2.13398 -3.42749
453 1 3.35786 -2.62728 2.20876 -3.54838
454 1 6.68305 -4.32529 0.312535 -3.46269
455 1 8.54384 -2.68592 0.0807216 -3.4504
456 1 8.32558 -4.451 2.04293 -3.48577
457 1 6.65763 -2.57244 2.23881 -3.44814
458 1 10.235 -4.52566 0.167578 -3.4565
459 1 11.9269 -2.71275 0.382244 -3.49504
460 1 12.5077 -3.39778 2.90749 -3.43588
461 1 10.1519 -2.76917 2.34032 -3.49535
462 1 14.5368 -3.13212 0.762205 -3.41008
463 1 16.1294 -1.28856 1.14472 -2.94921
464 1 16.1219 -1.89909 5.02224 -2.97376
465 1 14.4386 -1.64233 3.05822 -3.46508
466 1 -17.1616 1.1783 2.34735 -2.5141
467 1 -15.5841 3.08072 2.14665 -3.15422
468 1 -15.7578 0.730374 4.2655 -3.13737
469 1 -14.1399 1.08196 2.29573 -3.50829
470 1 -12.0819 1.04574 0.253786 -3.44804
471 1 -12.2869 1.06744 4.34555 -3.44076
472 1 -14.0518 2.77154 4.12339 -3.46647
473 1 -10.2861 -0.585199 0.186898 -3.45607
474 1 -8.62066 1.19886 0.316975 -3.46546
475 1 -8.57993 -0.765508 2.26238 -3.49294
476 1 -10.2403 0.989467 2.31254 -3.45062
477 1 -6.93801 -0.530893 0.12545 -3.44182
478 1 -5.19752 1.28225 0.332553 -3.52445
479 1 -5.40385 -0.667002 2.12456 -3.51036
480 1 -6.84754 1.22321 2.55502 -3.40636
481 1 -3.5411 -0.574625 0.210266 -3.50678
482 1 -1.69697 1.04618 0.255803 -3.47834
483 1 -1.9186 -0.735903 2.27585 -3.50112
484 1 -3.49006 1.1218 2.42559 -3.47768
485 1 -0.175559 -0.897427 0.366606 -3.50059
486 1 1.54668 0.935545 0.721577 -3.44659
487 1 1.49291 -0.947642 2.28625 -3.48522
488 1 -0.248444 0.971087 2.3946 -3.49313
489 1 3.35199 -0.838159 0.398002 -3.49178
490 1 5.32079 0.981793 0.504555 -3.51768
491 1 5.10322 -0.895799 2.20098 -3.411
492 1 3.33329 0.858629 2.28544 -3.49554
493 1 6.93158 -0.86925 0.345666 -3.48346
494 1 8.62774 0.881619 0.596357 -3.49617
495 1 8.47647 -0.953754 2.39182 -3.49398
496 1 6.7769 0.881316 2.47114 -3.48972
497 1 10.1678 -0.966255 0.454142 -3.46347
498 1 11.9111 0.875796 0.858585 -3.47559
499 1 12.0372 -1.05607 2.45242 -3.48683
500 1 10.2793 0.747588 2.65702 -3.47001
501 1 13.8466 -0.753253 0.558112 -3.45524
502 1 15.6336 1.04423 0.782321 -3.17607
503 1 16.2375 0.275423 3.13829 -2.94032
504 1 13.8983 0.971827 2.65067 -3.5062
505 1 16.8224 1.26565 -1.40548 -2.64374
506 1 -15.4319 4.45231 0.262444 -2.91881
507 1 -15.4138 4.77484 4.54399 -3.03217
508 1 -13.7094 2.83692 0.390152 -3.39631
509 1 -11.9814 4.90402 0.484072 -3.46224
510 1 -12.1452 2.60671 2.2239 -3.43392
511 1 -13.5847 4.60143 2.28767 -3.32224
512 1 -10.3721 3.06426 0.542294 -3.48343
513 1 -8.66095 4.91151 0.667848 -3.51881
514 1 -8.70742 2.86706 2.50813 -3.48538
515 1 -10.5644 4.48286 2.48466 -3.45016
516 1 -6.97637 3.04453 0.590793 -3.51798
517 1 -5.20761 4.70879 0.608672 -3.41098
518 1 -5.21411 2.95624 2.43816 -3.46689
519 1 -6.71545 4.798 2.38556 -3.42146
520 1 -3.50366 3.05475 0.474309 -3.47535
521 1 -1.67977 4.69922 0.765855 -3.49146
522 1 -1.86989 2.78345 2.4468 -3.45848
523 1 -3.42531 4.70808 2.46699 -3.51113
524 1 -0.0499166 2.76075 0.637771 -3.48583
525 1 1.62732 4.65027 0.634396 -3.49483
526 1 1.70952 2.78248 2.53078 -3.47131
527 1 -0.0424595 4.50184 2.68753 -3.46859
528 1 3.39385 2.8147 0.654801 -3.50462
529 1 5.2495 4.55532 0.677688 -3.43431
530 1 5.12224 2.71388 2.50024 -3.51793
531 1 3.3375 4.43938 2.5479 -3.44933
532 1 7.0751 2.77714 0.633777 -3.48732
533 1 8.71525 4.4485 1.00081 -3.40033
534 1 8.6153 2.59772 2.74658 -3.52033
535 1 6.83174 4.46215 2.78738 -3.47056
536 1 10.2702 2.80661 0.707279 -3.42043
537 1 11.9751 4.4143 0.662574 -3.45322
538 1 11.9843 2.55135 2.71048 -3.4469
539 1 10.3955 4.46513 2.77538 -3.52892
540 1 13.7317 2.6875 0.715236 -3.4764
541 1 15.5326 4.43799 0.871955 -3.0025
542 1 15.7008 2.71221 2.90689 -3.1486
543 1 13.666 4.26761 2.65351 -3.39724
544 1 -15.2941 6.07111 2.49108 -2.76816
545 1 -13.7733 6.57728 0.61757 -3.3321
546 1 -12.082 8.49179 0.585404 -3.43412
547 1 -12.1086 6.40247 2.69174 -3.4307
548 1 -13.883 8.03263 2.59247 -3.04955
549 1 -10.3178 6.75987 0.73206 -3.43353
550 1 -8.56071 8.30574 0.785992 -3.43071
551 1 -8.60315 6.3514 2.73804 -3.4722
552 1 -10.4948 8.23612 2.76232 -3.51024
553 1 -6.73063 6.65912 0.695197 -3.49736
554 1 -4.95829 8.26481 0.826275 -3.43498
555 1 -5.14557 6.60793 2.75789 -3.51231
556 1 -7.08271 8.17966 2.74294 -3.36784
557 1 -3.31482 6.43569 0.72948 -3.49664
558 1 -1.63393 8.32868 0.782996 -3.53434
559 1 -1.52842 6.35449 2.74841 -3.42596
560 1 -3.20133 8.16002 2.73312 -3.5137
561 1 0.105228 6.49828 0.826994 -3.48416
562 1 1.84787 8.31565 0.959896 -3.51177
563 1 1.62263 6.26397 2.80737 -3.49814
564 1 0.0463316 8.0538 2.81971 -3.42163
565 1 3.56355 6.32471 0.774992 -3.51392
566 1 5.23042 8.16761 0.868772 -3.50909
567 1 5.15495 6.19569 2.80405 -3.49673
568 1 3.52821 8.13727 2.83815 -3.49601
569 1 6.84606 6.2132 0.788278 -3.47347
570 1 8.60934 8.0473 1.11337 -3.465
571 1 8.4916 6.31902 2.77492 -3.47736
572 1 6.83572 8.11222 2.86122 -3.51286
573 1 10.3166 6.40921 1.05605 -3.46023
574 1 12.1342 7.94178 1.1466 -3.39273
575 1 12.2118 6.14373 2.95979 -3.45649
576 1 10.308 7.94046 3.05554 -3.5149
577 1 13.9174 6.24194 1.07544 -3.27968
578 1 15.6185 5.43547 3.06355 -2.75878
579 1 14.208 7.67777 3.06882 -3.06963
580 1 -14.0641 9.95651 0.985317 -2.60487
581 1 -12.2 11.6034 1.01875 -2.81167
582 1 -12.2794 9.8625 2.867 -3.28462
583 1 -10.2794 10.0839 0.970615 -3.47806
584 1 -8.34989 11.6933 0.961415 -3.44003
585 1 -8.52357 9.92771 2.73448 -3.41061
586 1 -10.3212 11.5927 2.97706 -3.333
587 1 -6.70506 9.93232 0.713001 -3.45492
588 1 -5.22805 11.8142 0.994328 -3.50087
589 1 -5.20338 9.86761 2.84689 -3.54256
590 1 -6.84104 11.8636 2.95709 -3.49752
591 1 -3.41625 10.1143 0.989292 -3.50587
592 1 -1.60901 11.9296 1.14399 -3.4446
593 1 -1.55086 10.0348 2.85154 -3.53567
594 1 -3.4826 11.6867 2.89507 -3.50619
595 1 0.172849 10.111 0.970322 -3.51316
596 1 1.82972 11.9425 0.946383 -3.44246
597 1 1.65279 9.86671 3.00069 -3.44228
598 1 0.108846 11.8937 2.92799 -3.48878
599 1 3.59148 10.247 1.1433 -3.43009
600 1 5.27426 11.8974 1.1575 -3.45835
601 1 5.13963 10.1652 2.96964 -3.47579
602 1 3.21616 11.8416 2.9979 -3.51016
603 1 7.01575 10.0319 1.02381 -3.51555
604 1 8.96234 11.6092 1.12174 -3.33874
605 1 8.64419 9.83223 2.99669 -3.5297
606 1 7.05856 11.739 3.0674 -3.37831
607 1 10.5834 9.72408 1.19292 -3.49598
608 1 12.5691 11.2567 1.23211 -2.83712
609 1 12.4115 9.48027 3.24509 -3.2974
610 1 10.6748 11.4644 3.13518 -3.32176
611 1 14.1821 9.15621 1.11428 -2.7595
612 1 -10.3843 13.0621 0.941496 -2.73775
613 1 -8.64829 13.6357 2.98408 -3.04653
614 1 -6.78586 13.7726 0.995055 -3.2671
615 1 -5.14222 15.4592 1.13697 -2.97768
616 1 -5.06311 13.569 3.06476 -3.46383
617 1 -6.86882 15.2081 2.92476 -2.67399
618 1 -3.46525 13.572 1.01727 -3.51556
619 1 -1.82302 15.5843 1.08497 -3.09508
620 1 -1.77839 13.5334 2.93543 -3.46345
621 1 -3.32937 15.4298 2.89657 -3.00448
622 1 -0.0195159 13.6715 1.15115 -3.49989
623 1 1.87313 15.6024 1.47779 -3.09423
624 1 1.61846 13.6908 3.25377 -3.42996
625 1 -0.172251 15.4246 3.02223 -3.2084
626 1 3.53007 13.7433 1.29695 -3.43132
627 1 5.66506 15.2955 1.5102 -2.87959
628 1 5.16978 13.4125 3.25021 -3.4801
629 1 3.51475 15.2659 3.48654 -2.97108
630 1 7.16323 13.397 1.36543 -3.24407
631 1 8.79759 13.1755 3.12068 -3.02059
632 1 7.15556 14.8765 3.60904 -2.73642
633 1 10.6822 13.0639 1.10148 -2.65966
634 1 -0.131601 17.2428 1.24915 -2.28125
635 1 -5.718 -14.8813 5.14796 -2.83954
636 1 -7.26818 -14.7732 7.00995 -2.62169
637 1 -1.26106 -14.2955 5.5752 -2.92679
638 1 -3.04638 -14.2785 7.32605 -2.9388
639 1 0.442648 -14.0873 3.85781 -3.16842
640 1 2.23929 -14.3597 5.75361 -3.02487
641 1 0.6028 -14.5499 7.68267 -3.07063
642 1 5.42244 -14.4118 5.94937 -2.95541
643 1 3.78177 -14.4764 7.74502 -3.09145
644 1 6.93423 -14.7109 7.792 -2.65564
645 1 -12.7132 -11.3281 5.61344 -2.80723
646 1 -10.816 -13.0528 5.30909 -2.69678
647 1 -9.15709 -11.4461 5.54159 -3.36916
648 1 -9.1847 -13.1405 7.22785 -3.08982
649 1 -11.034 -11.4081 7.38818 -3.33589
650 1 -7.43367 -13.0734 5.19769 -3.35778
651 1 -5.49841 -11.6071 5.3026 -3.4638
652 1 -5.41493 -13.297 7.21084 -3.30679
653 1 -7.26142 -11.7594 7.42852 -3.48219
654 1 -3.81488 -13.4662 5.18088 -3.27672
655 1 -1.91214 -12.0789 5.56928 -3.38285
656 1 -1.1365 -12.7146 7.97914 -3.44303
657 1 -3.55572 -11.7772 7.50333 -3.46054
658 1 0.482212 -12.4495 6.02004 -3.45273
659 1 2.19931 -12.3388 4.04129 -3.49813
660 1 2.0847 -12.6446 7.86363 -3.41912
661 1 0.423631 -10.7342 7.97141 -3.47667
662 1 3.86933 -12.533 5.91642 -3.43054
663 1 5.57846 -10.9198 6.12291 -3.4802
664 1 5.49167 -12.6908 8.0162 -3.4612
665 1 3.83445 -10.9714 8.14587 -3.42644
666 1 7.24904 -12.7699 6.00961 -3.33407
667 1 8.81867 -10.7365 6.17418 -3.42571
668 1 8.75302 -12.8861 7.98418 -3.0849
669 1 7.28751 -10.9243 8.05074 -3.48165
670 1 10.4633 -12.5157 6.04744 -2.739
671 1 12.265 -10.7293 6.15324 -2.84834
672 1 10.6797 -11.0718 8.0709 -3.30336
673 1 -14.3404 -9.43922 5.44541 -2.73723
674 1 -12.5645 -7.86215 5.52009 -3.41593
675 1 -12.8309 -9.72318 7.48659 -3.29462
676 1 -14.3601 -7.89484 7.40417 -3.10153
677 1 -10.9861 -9.64121 5.4284 -3.46823
678 1 -8.94234 -8.23965 5.69116 -3.5032
679 1 -9.02655 -9.90658 7.55573 -3.47289
680 1 -10.7881 -8.18709 7.54295 -3.54119
681 1 -7.23221 -9.94963 5.47566 -3.48523
682 1 -5.49158 -8.28527 5.59413 -3.48305
683 1 -5.46961 -10.1292 7.38657 -3.52106
684 1 -7.20553 -8.29787 7.57195 -3.48763
685 1 -3.57655 -10.1283 5.51441 -3.52015
686 1 -2.01466 -8.24308 5.80556 -3.42707
687 1 -1.82348 -10.0331 7.68665 -3.40973
688 1 -3.69791 -8.43475 7.55367 -3.45975
689 1 -0.340732 -10.1601 5.65671 -3.48423
690 1 1.38808 -9.8042 3.71767 -3.49444
691 1 2.1874 -10.7092 5.94926 -3.47529
692 1 -0.211882 -8.20284 7.84848 -3.4833
693 1 3.86999 -10.4406 4.21116 -3.45354
694 1 5.68443 -8.81901 4.14384 -3.46992
695 1 5.40246 -9.12061 8.24617 -3.47897
696 1 3.88774 -8.85786 6.20533 -3.48755
697 1 7.14215 -9.066 6.28033 -3.44141
698 1 8.84399 -7.17025 6.44471 -3.48812
699 1 8.92857 -9.04335 8.35552 -3.50067
700 1 7.14464 -7.29869 8.48721 -3.51162
701 1 10.5956 -8.98678 6.39764 -3.48867
702 1 12.4178 -6.98767 6.51855 -3.4398
703 1 12.3514 -9.17777 8.24189 -3.31892
704 1 10.6944 -7.273 8.39723 -3.4934
705 1 14.0714 -8.80727 6.32365 -2.69315
706 1 14.163 -7.2836 8.51462 -3.11366
707 1 -16.1094 -4.19015 5.99925 -2.92274
708 1 -16.0245 -6.05061 7.68269 -2.75057
709 1 -14.469 -6.06633 5.695 -3.35266
710 1 -12.4106 -4.50732 5.80069 -3.51557
711 1 -12.5786 -6.27119 7.72033 -3.45362
712 1 -14.0916 -4.45974 7.77163 -3.45674
713 1 -10.6566 -6.38014 5.77493 -3.52103
714 1 -8.79685 -4.68666 5.83821 -3.44193
715 1 -8.79304 -6.48408 7.70812 -3.47307
716 1 -10.6712 -4.74637 7.83246 -3.4989
717 1 -7.13176 -6.57425 5.7705 -3.47299
718 1 -5.31336 -4.61677 6.01529 -3.50816
719 1 -5.28879 -6.67837 7.86795 -3.48283
720 1 -7.02239 -4.78843 7.86927 -3.47379
721 1 -3.58789 -6.41444 5.84303 -3.48767
722 1 -1.93486 -6.2074 3.93099 -3.42828
723 1 -2.11569 -6.50475 8.01341 -3.47562
724 1 -3.63989 -4.7198 7.94624 -3.4747
725 1 -0.275887 -8.07035 3.71977 -3.47204
726 1 1.48572 -6.29528 3.93982 -3.49818
727 1 1.48519 -8.1597 5.77025 -3.5292
728 1 -0.473375 -6.44633 5.73804 -3.43406
729 1 3.27323 -8.14353 3.93426 -3.4707
730 1 4.96859 -6.39974 3.99056 -3.49478
731 1 5.65385 -7.14063 6.36363 -3.50107
732 1 3.22704 -6.34461 5.92012 -3.48546
733 1 7.35511 -6.95234 4.38484 -3.48455
734 1 9.07205 -5.13959 4.51195 -3.4662
735 1 8.86437 -5.47466 8.56958 -3.52536
736 1 7.48226 -5.26958 6.52259 -3.43369
737 1 10.6642 -5.33078 6.61848 -3.50625
738 1 12.5352 -3.52799 6.76519 -3.5218
739 1 12.436 -5.49221 8.59368 -3.46
740 1 10.6539 -3.68174 8.72012 -3.50621