ITEM: TIMESTEP
76000
ITEM: NUMBER OF ATOMS
3804
ITEM: BOX BOUNDS ss ss pp
-1.7563203529483648e+01 1.7651109389889527e+01
-1.7550500068918346e+01 1.7640680707149912e+01
-1.6484400000000001e+00 4.5028440000000003e+01
ITEM: ATOMS id type x y z c_peratom
1 1 -5.12093 -15.7582 45.2466 -2.98718
2 1 -7.06672 -16.0015 0.512829 -2.57824
3 1 -1.93191 -16.0015 44.9966 -3.08586
4 1 -3.21553 -15.669 0.434863 -3.0542
5 1 -0.157368 -17.56 -1.29777 -2.31412
6 1 1.73055 -16.0991 44.9337 -3.05722
7 1 -0.109011 -15.9087 0.549694 -3.13426
8 1 5.33901 -15.9347 -1.49791 -2.97876
9 1 3.64667 -15.9146 0.220697 -3.00131
10 1 7.04148 -15.8526 0.343358 -2.70525
11 1 -12.5308 -12.2991 44.8436 -2.75578
12 1 -10.4039 -14.083 45.1928 -2.67801
13 1 -8.84573 -12.3705 45.1253 -3.43623
14 1 -8.90276 -14.1331 0.533766 -3.09586
15 1 -10.7909 -12.4286 0.330064 -3.27662
16 1 -7.02899 -14.306 45.2609 -3.33343
17 1 -5.3399 -12.3456 45.0679 -3.50778
18 1 -5.17779 -14.1327 0.389741 -3.46499
19 1 -7.0591 -12.4605 0.373857 -3.49156
20 1 -3.42737 -13.9863 45.1364 -3.48326
21 1 -1.64365 -12.2531 -1.5887 -3.50731
22 1 -1.56579 -14.0726 0.281431 -3.38982
23 1 -3.24963 -12.357 0.325042 -3.47689
24 1 0.030987 -14.281 44.929 -3.50886
25 1 1.77369 -12.3826 -1.6116 -3.51573
26 1 1.65821 -14.2432 0.283147 -3.49271
27 1 0.0366695 -12.2132 0.283283 -3.44475
28 1 3.42825 -14.2895 44.9142 -3.45007
29 1 5.17072 -12.4358 45.0816 -3.52346
30 1 5.37503 -14.0909 0.245829 -3.40108
31 1 3.54821 -12.401 0.300973 -3.50453
32 1 7.17457 -14.0618 -1.68097 -3.36598
33 1 8.84736 -12.3027 44.9017 -3.36564
34 1 8.88556 -14.0647 0.352306 -3.10854
35 1 7.23374 -12.3569 0.17784 -3.42395
36 1 10.5557 -14.0204 45.0104 -2.73194
37 1 12.3316 -12.2925 -1.84703 -2.81194
38 1 10.6418 -12.3049 0.177921 -3.32513
39 1 -13.9502 -10.3911 -1.61489 -2.75719
40 1 -12.233 -8.67869 -1.54517 -3.3788
41 1 -12.3671 -10.5269 0.218586 -3.31842
42 1 -14.1433 -8.71035 0.317143 -3.05929
43 1 -10.7539 -10.5474 44.9874 -3.49563
44 1 -8.74321 -8.9084 -1.59211 -3.48552
45 1 -8.88908 -10.5859 0.306697 -3.50245
46 1 -10.5025 -8.77683 0.36599 -3.49533
47 1 -7.05637 -10.561 45.2146 -3.44069
48 1 -5.22829 -8.89485 45.2689 -3.44081
49 1 -5.23651 -10.7309 0.219008 -3.467
50 1 -7.0735 -8.83709 0.423628 -3.51437
51 1 -3.49637 -10.5409 -1.63269 -3.50836
52 1 -1.69871 -8.84433 45.0065 -3.50162
53 1 -1.71132 -10.5646 0.312204 -3.44211
54 1 -3.51235 -8.97423 0.393013 -3.48604
55 1 0.12501 -10.5534 -1.65187 -3.4776
56 1 1.70284 -8.76171 45.1078 -3.47293
57 1 1.7701 -10.6215 0.280589 -3.47347
58 1 0.0516381 -8.87538 0.40468 -3.50449
59 1 3.49167 -10.573 45.0432 -3.51317
60 1 5.38376 -8.94691 -1.53491 -3.49802
61 1 5.38473 -10.7149 0.314508 -3.51101
62 1 3.67742 -8.84712 0.220259 -3.47208
63 1 7.19561 -10.6424 45.0299 -3.46937
64 1 8.86172 -8.91425 44.9828 -3.46731
65 1 8.79595 -10.6346 0.396692 -3.4638
66 1 7.1353 -8.74907 0.41912 -3.49648
67 1 10.5917 -10.628 44.9928 -3.46442
68 1 12.3615 -8.68141 -1.71793 -3.42617
69 1 12.3162 -10.3621 0.110014 -3.31072
70 1 10.4898 -8.76421 0.269802 -3.51839
71 1 14.245 -10.1856 -1.66049 -2.69634
72 1 14.0677 -8.76201 0.306685 -3.08692
73 1 -15.7478 -5.17554 -1.66205 -2.9978
74 1 -15.8384 -7.09948 0.194308 -2.61386
75 1 -14.1787 -7.14225 45.0266 -3.33248
76 1 -12.4158 -5.43592 45.2152 -3.53257
77 1 -12.3573 -7.13625 0.520365 -3.47452
78 1 -14.191 -5.12048 0.425162 -3.43772
79 1 -10.5247 -7.11396 45.0718 -3.45045
80 1 -8.76842 -5.4253 -1.61238 -3.47605
81 1 -8.76741 -7.09489 0.524363 -3.48118
82 1 -10.5216 -5.31113 0.450281 -3.47768
83 1 -7.05872 -7.05731 -1.62682 -3.4785
84 1 -5.35736 -5.33596 44.9472 -3.47526
85 1 -5.2682 -7.10353 0.43438 -3.4906
86 1 -6.93824 -5.28509 0.387192 -3.51664
87 1 -3.54276 -7.18969 45.1368 -3.51239
88 1 -1.77763 -5.35509 45.012 -3.5148
89 1 -1.72757 -7.16373 0.420165 -3.50693
90 1 -3.57025 -5.3746 0.267124 -3.51852
91 1 -0.000364832 -7.12411 -1.73298 -3.45473
92 1 1.79752 -5.38589 -1.5969 -3.49294
93 1 1.92114 -7.15577 0.39367 -3.51502
94 1 -0.036577 -5.3019 0.255918 -3.48455
95 1 3.53367 -7.03924 -1.50713 -3.48984
96 1 5.53083 -5.3628 -1.77757 -3.47064
97 1 5.38511 -7.10194 0.270878 -3.51795
98 1 3.55878 -5.2556 0.236638 -3.50557
99 1 7.15322 -7.16209 -1.65781 -3.49993
100 1 8.81454 -5.31629 -1.56113 -3.49718
101 1 8.84396 -6.97263 0.244501 -3.45615
102 1 7.13681 -5.20359 0.325211 -3.4682
103 1 10.4971 -7.14656 -1.719 -3.49058
104 1 12.3543 -5.33679 45.2191 -3.51491
105 1 12.3485 -7.01502 0.329497 -3.49043
106 1 10.512 -5.30179 0.167782 -3.4605
107 1 14.1841 -7.14353 45.1717 -3.35822
108 1 15.9072 -5.12623 -1.68733 -3.00142
109 1 15.7932 -6.8232 0.269208 -2.74805
110 1 14.0556 -5.34435 0.513094 -3.37275
111 1 -15.8519 -1.79906 45.0689 -3.12713
112 1 -16.0008 -3.4089 0.291445 -2.95468
113 1 -14.0366 -3.55585 45.227 -3.41481
114 1 -12.3616 -1.72446 45.2209 -3.51091
115 1 -12.2526 -3.45798 0.399136 -3.50832
116 1 -14.1157 -1.81055 0.696248 -3.45183
117 1 -10.5512 -3.747 45.1195 -3.5064
118 1 -8.86474 -1.89402 45.06 -3.48306
119 1 -8.83304 -3.69481 0.327 -3.47879
120 1 -10.48 -1.74299 0.357439 -3.50753
121 1 -7.08448 -3.45815 45.0931 -3.48493
122 1 -5.30064 -1.79796 45.266 -3.43813
123 1 -5.31929 -3.43747 0.410822 -3.4915
124 1 -7.31507 -1.74337 0.455389 -3.48079
125 1 -3.62361 -3.61529 45.0364 -3.51148
126 1 -1.69939 -1.80614 -1.70019 -3.51623
127 1 -1.8342 -3.61356 0.232573 -3.50878
128 1 -3.50282 -1.80367 0.345945 -3.50778
129 1 -0.00215639 -3.6422 -1.68253 -3.51687
130 1 1.92143 -1.89541 -1.61317 -3.51337
131 1 1.64077 -3.68478 0.274976 -3.45205
132 1 -0.0473543 -1.90662 0.268624 -3.52069
133 1 3.59357 -3.64142 -1.67715 -3.49359
134 1 5.27095 -1.78874 45.0422 -3.51405
135 1 5.40129 -3.64649 0.274088 -3.48449
136 1 3.47894 -1.93975 0.306626 -3.48451
137 1 7.07352 -3.54632 44.9593 -3.46483
138 1 8.72379 -1.79831 44.9041 -3.47594
139 1 8.88788 -3.50363 0.306929 -3.47065
140 1 7.21915 -1.72825 0.239666 -3.49873
141 1 10.6071 -3.4223 -1.64669 -3.48279
142 1 12.4798 -1.98767 -1.58052 -3.4122
143 1 12.2791 -3.53052 0.415328 -3.47036
144 1 10.6386 -1.8581 0.20968 -3.43593
145 1 14.0789 -3.73093 -1.54067 -3.30568
146 1 15.9372 -2.30694 -1.46823 -3.14516
147 1 16.0318 -3.86873 0.472494 -3.03002
148 1 14.1769 -1.99506 0.481404 -3.47777
149 1 -17.3421 0.131267 -1.96652 -2.3572
150 1 -15.7888 1.76175 45.1384 -3.0887
151 1 -15.9021 -0.121424 0.287803 -3.251
152 1 -14.1683 -0.00453171 45.2087 -3.45472
153 1 -12.4155 1.65936 -1.67532 -3.46541
154 1 -12.2601 -0.0264206 0.535853 -3.50038
155 1 -14.0683 1.61028 0.408285 -3.46587
156 1 -10.5781 -0.0203061 45.1247 -3.49708
157 1 -8.82016 1.77769 -1.68321 -3.49317
158 1 -8.83121 0.0423305 0.358862 -3.46525
159 1 -10.5929 1.76577 0.351602 -3.50306
160 1 -6.98358 0.0527118 45.0773 -3.48116
161 1 -5.29925 1.75753 45.0092 -3.51009
162 1 -5.40694 -0.0749245 0.239728 -3.47211
163 1 -6.9684 1.81136 0.370152 -3.48706
164 1 -3.51542 0.00522361 45.0649 -3.50924
165 1 -1.64724 1.56125 -1.61158 -3.48872
166 1 -1.68769 -0.0542692 0.250007 -3.48921
167 1 -3.54405 1.64645 0.344887 -3.52774
168 1 0.0668117 -0.176668 -1.67259 -3.43567
169 1 1.78253 1.66177 -1.45337 -3.50151
170 1 1.86089 -0.166241 0.393662 -3.47341
171 1 0.0326317 1.69489 0.457186 -3.47379
172 1 3.57568 0.0252708 -1.74462 -3.47184
173 1 5.12545 1.93702 -1.59598 -3.43951
174 1 5.21155 -0.0611926 0.226787 -3.52763
175 1 3.51862 1.77613 0.404704 -3.48992
176 1 7.06261 0.125411 -1.64612 -3.52087
177 1 8.80396 1.79024 -1.64198 -3.45233
178 1 8.87504 0.0125393 0.246159 -3.48834
179 1 7.0501 1.74301 0.296879 -3.52355
180 1 10.5379 -0.108192 45.1034 -3.52385
181 1 12.5961 1.73295 45.0262 -3.46616
182 1 12.6081 -0.0685402 0.114007 -3.50715
183 1 10.6776 1.73619 0.302852 -3.50044
184 1 14.3785 -0.260622 -1.74048 -3.49413
185 1 16.1065 1.59439 44.9514 -3.10598
186 1 15.9212 -0.144995 0.160193 -3.03741
187 1 14.3745 1.64819 0.0782339 -3.42034
188 1 17.4669 -0.335759 -1.60402 -2.39935
189 1 -15.6411 5.4405 -1.73445 -2.94784
190 1 -15.8195 3.5292 0.178898 -3.04326
191 1 -13.961 3.42804 -1.6356 -3.45206
192 1 -12.2859 5.38526 -1.73721 -3.42538
193 1 -12.4575 3.44266 0.252006 -3.46961
194 1 -14.1076 5.21714 0.275183 -3.33759
195 1 -10.6899 3.67308 -1.50231 -3.47094
196 1 -8.80868 5.26548 45.0192 -3.45378
197 1 -8.79955 3.57233 0.438595 -3.50924
198 1 -10.5406 5.31937 0.399486 -3.51729
199 1 -7.20087 3.57992 45.092 -3.45787
200 1 -5.38564 5.23426 45.0366 -3.48391
201 1 -5.35537 3.53598 0.246909 -3.46044
202 1 -6.96723 5.2976 0.29847 -3.46467
203 1 -3.39671 3.48004 45.0739 -3.52248
204 1 -1.77152 5.27626 -1.47191 -3.48402
205 1 -1.70043 3.44521 0.370151 -3.5222
206 1 -3.56156 5.33129 0.269467 -3.48552
207 1 0.0510983 3.49178 -1.50215 -3.52935
208 1 1.60071 5.44213 -1.60345 -3.49133
209 1 1.71019 3.48604 0.372371 -3.49443
210 1 0.0347069 5.37073 0.466426 -3.50408
211 1 3.33244 3.61523 45.1417 -3.51473
212 1 5.18045 5.2695 -1.44841 -3.50007
213 1 5.19379 3.64761 0.404172 -3.51641
214 1 3.32623 5.42439 0.459777 -3.51845
215 1 6.92926 3.37404 45.0464 -3.46273
216 1 8.79207 5.24076 -1.77359 -3.54193
217 1 8.87454 3.40532 0.254208 -3.47481
218 1 7.18281 5.2202 0.387332 -3.49424
219 1 10.6624 3.33995 -1.73872 -3.4685
220 1 12.3151 5.17951 45.0749 -3.47126
221 1 12.3136 3.50386 0.332996 -3.46155
222 1 10.5754 5.07903 0.20309 -3.45142
223 1 14.2564 3.4837 45.158 -3.46491
224 1 16.0546 5.19179 -1.62253 -2.91157
225 1 16.1741 3.44393 0.115701 -2.99666
226 1 14.2985 5.27752 0.318665 -3.42688
227 1 -15.7287 6.78565 0.383074 -2.70303
228 1 -14.0574 7.25363 -1.57268 -3.32198
229 1 -12.2868 8.85069 -1.56564 -3.39258
230 1 -12.3915 7.11617 0.292825 -3.47788
231 1 -14.0484 8.86272 0.389576 -3.08873
232 1 -10.6556 7.21094 45.1249 -3.45821
233 1 -8.83845 8.86777 -1.47364 -3.52693
234 1 -8.69632 7.12146 0.347779 -3.5142
235 1 -10.6769 8.83796 0.43528 -3.51524
236 1 -7.10934 6.96897 45.1431 -3.47898
237 1 -5.26083 8.87028 44.9922 -3.44501
238 1 -5.28276 7.0043 0.189639 -3.47731
239 1 -6.97873 8.9254 0.315532 -3.46688
240 1 -3.5219 6.97855 45.1062 -3.50547
241 1 -1.86979 8.8912 -1.70886 -3.53713
242 1 -1.82022 7.142 0.298301 -3.52393
243 1 -3.60434 8.89664 0.228714 -3.49419
244 1 -0.134841 7.1463 -1.56824 -3.4958
245 1 1.73483 8.89682 -1.70304 -3.49237
246 1 1.59927 7.18339 0.362142 -3.43768
247 1 0.00941466 9.00248 0.324675 -3.51379
248 1 3.41463 7.08746 45.0852 -3.52044
249 1 5.22857 8.86741 45.0201 -3.51346
250 1 5.25369 7.15853 0.355733 -3.49757
251 1 3.32821 8.83278 0.286153 -3.51776
252 1 6.94927 6.95904 -1.452 -3.47453
253 1 8.84342 8.64598 -1.81362 -3.52027
254 1 8.92287 7.0101 0.263516 -3.5261
255 1 7.02862 8.75145 0.289494 -3.47856
256 1 10.6948 6.89405 -1.634 -3.48077
257 1 12.5279 8.5682 -1.84308 -3.4576
258 1 12.3371 6.83534 0.261901 -3.46586
259 1 10.7996 8.70283 0.169288 -3.49881
260 1 14.2624 6.68192 44.98 -3.32741
261 1 16.0903 6.77329 0.179088 -2.64774
262 1 14.1766 8.42857 0.0129373 -3.08726
263 1 -14.0987 10.5743 -1.52332 -2.73113
264 1 -12.5241 12.4956 -1.67003 -2.79971
265 1 -12.4028 10.7767 0.295219 -3.32016
266 1 -10.6943 10.6596 45.0656 -3.46827
267 1 -8.90226 12.3177 -1.5923 -3.45268
268 1 -8.88854 10.6848 0.359046 -3.51629
269 1 -10.629 12.5 0.163264 -3.3092
270 1 -6.97158 10.6456 -1.72234 -3.48842
271 1 -5.4777 12.5137 -1.80202 -3.42802
272 1 -5.3335 10.5286 0.238239 -3.37571
273 1 -6.99132 12.626 0.217114 -3.50767
274 1 -3.75903 10.6018 -1.67255 -3.42764
275 1 -1.97186 12.332 44.8989 -3.49611
276 1 -1.88913 10.7001 0.219551 -3.50765
277 1 -3.76436 12.3478 0.21995 -3.53369
278 1 -0.027696 10.6917 45.0801 -3.50072
279 1 1.69023 12.4099 -1.61902 -3.50283
280 1 1.66636 10.7603 0.371687 -3.46759
281 1 -0.167747 12.387 0.265657 -3.46193
282 1 3.50046 10.583 45.0551 -3.51114
283 1 5.42094 12.2277 -1.62661 -3.51247
284 1 5.31858 10.5125 0.3501 -3.51923
285 1 3.48428 12.2377 0.43276 -3.44595
286 1 7.18719 10.47 45.0082 -3.47601
287 1 8.98484 11.9835 44.952 -3.37623
288 1 8.93007 10.4031 0.162243 -3.50293
289 1 7.17042 12.1138 0.318287 -3.50607
290 1 10.7927 10.3776 45.0629 -3.48117
291 1 12.6016 12.0124 44.8833 -2.81473
292 1 12.7917 10.4126 0.130974 -3.23807
293 1 10.9126 12.0667 0.266584 -3.28656
294 1 14.3478 10.1614 45.0296 -2.67465
295 1 -10.4268 14.2379 -1.47617 -2.70889
296 1 -8.79454 14.2095 0.429984 -3.0851
297 1 -7.26127 14.4601 -1.74298 -3.27563
298 1 -5.15694 16.1428 44.9458 -2.89877
299 1 -5.25186 14.4279 0.420834 -3.38989
300 1 -7.06498 16.0344 0.241499 -2.64356
301 1 -3.72763 14.1554 45.1042 -3.45574
302 1 -1.79111 16.0528 44.9644 -3.07958
303 1 -1.78775 14.1364 0.288082 -3.3841
304 1 -3.27508 15.9425 0.338558 -2.99972
305 1 -0.0953195 14.1126 -1.60502 -3.50598
306 1 1.91172 15.5862 -1.74706 -3.08254
307 1 1.87774 13.9989 0.31026 -3.46443
308 1 0.0187615 15.7592 0.223446 -3.24323
309 1 3.62224 13.9452 45.0409 -3.4463
310 1 5.62965 15.4579 -1.70691 -2.96096
311 1 5.40618 13.8811 0.350779 -3.43545
312 1 3.59835 15.7707 0.232425 -3.00326
313 1 7.29833 13.7974 44.9946 -3.33371
314 1 9.09677 13.7706 0.214894 -3.10282
315 1 7.17574 15.3541 0.229241 -2.71496
316 1 10.5277 13.8742 44.9248 -2.68285
317 1 0.339628 17.3019 45.1389 -2.39301
318 1 -5.09136 -15.7484 2.30907 -3.02436
319 1 -6.7192 -15.8057 4.20473 -2.76515
320 1 -1.73437 -15.8324 2.42007 -3.1382
321 1 -3.47372 -15.821 4.1951 -3.03057
322 1 -0.112384 -17.5657 2.153 -2.32883
323 1 1.83135 -15.9003 2.21134 -3.08485
324 1 0.21675 -16.0698 4.19066 -3.23633
325 1 5.33925 -15.7372 1.9838 -2.97837
326 1 3.43061 -16.0384 4.07648 -3.00454
327 1 6.64622 -16.0139 4.13638 -2.74475
328 1 -12.3913 -12.1424 2.26254 -2.85575
329 1 -10.6184 -13.9598 2.38225 -2.70893
330 1 -8.75628 -12.4899 2.36395 -3.40009
331 1 -8.81107 -14.2511 4.35332 -3.08551
332 1 -10.6082 -12.3817 4.242 -3.3407
333 1 -6.94072 -14.0816 2.27152 -3.33383
334 1 -5.22221 -12.3704 2.2966 -3.50969
335 1 -5.14658 -14.033 4.17674 -3.38516
336 1 -7.00745 -12.5621 4.26689 -3.46021
337 1 -3.2637 -13.9215 2.28186 -3.46308
338 1 -1.42852 -12.3715 2.27474 -3.48827
339 1 -1.45394 -14.0555 4.23316 -3.46544
340 1 -3.3422 -12.3904 4.19345 -3.48856
341 1 0.197109 -14.1535 2.33282 -3.45621
342 1 1.7231 -12.3407 2.23412 -3.42198
343 1 1.90126 -14.1137 4.26344 -3.49436
344 1 0.124725 -12.3404 4.40175 -3.47314
345 1 3.30726 -14.1037 2.22718 -3.40209
346 1 5.3932 -12.4959 2.16513 -3.52992
347 1 5.04288 -14.1811 4.08169 -3.42597
348 1 3.52272 -12.2153 4.29865 -3.45382
349 1 7.27462 -14.337 2.31809 -3.28204
350 1 8.80958 -12.3785 2.31911 -3.45501
351 1 8.83558 -14.4554 4.20744 -3.04905
352 1 6.93173 -12.7002 4.14348 -3.4611
353 1 10.5025 -14.1723 2.1702 -2.66506
354 1 12.2022 -11.9905 2.00672 -2.81736
355 1 10.688 -12.4826 4.06092 -3.30554
356 1 -14.2396 -10.2842 2.18878 -2.69234
357 1 -12.2546 -8.83004 2.29092 -3.48678
358 1 -12.4252 -10.5547 4.22298 -3.34278
359 1 -14.229 -8.94014 4.13767 -3.03406
360 1 -10.5411 -10.6313 2.3627 -3.49123
361 1 -8.80812 -8.77267 2.44792 -3.47304
362 1 -8.82252 -10.714 4.32914 -3.46327
363 1 -10.5709 -8.86321 4.15642 -3.50472
364 1 -7.20795 -10.5754 2.30558 -3.49635
365 1 -5.31233 -8.90586 2.2723 -3.51595
366 1 -5.25244 -10.653 4.2273 -3.53158
367 1 -6.91538 -8.84598 4.16421 -3.50118
368 1 -3.41386 -10.6226 2.33087 -3.52688
369 1 -1.76483 -8.75399 2.348 -3.4719
370 1 -1.74685 -10.6203 4.2783 -3.48659
371 1 -3.33938 -8.86699 4.31837 -3.46935
372 1 0.210793 -10.6153 2.44275 -3.44148
373 1 2.00864 -8.83205 2.36302 -3.48414
374 1 1.90809 -10.505 4.26432 -3.46735
375 1 0.104756 -8.72373 4.19913 -3.50863
376 1 3.64091 -10.5885 2.37763 -3.48555
377 1 5.27704 -8.85819 2.16824 -3.48978
378 1 5.45396 -10.5731 4.23769 -3.52935
379 1 3.74222 -8.64175 4.14252 -3.46888
380 1 7.05424 -10.5474 2.12441 -3.4734
381 1 8.78837 -8.74572 2.29668 -3.48999
382 1 8.70831 -10.8089 4.17469 -3.50315
383 1 7.22241 -8.8711 4.20493 -3.49179
384 1 10.4336 -10.5412 2.19805 -3.39413
385 1 12.1011 -8.80584 2.19011 -3.47749
386 1 12.3373 -10.6039 4.16763 -3.32294
387 1 10.3752 -8.90693 4.25879 -3.52948
388 1 13.963 -10.5625 2.28814 -2.66316
389 1 14.1617 -8.88325 4.13621 -3.03014
390 1 -15.7663 -5.16264 2.28658 -2.97099
391 1 -15.665 -6.98546 4.13061 -2.70276
392 1 -14.1492 -7.07694 2.31477 -3.34365
393 1 -12.4069 -5.2864 2.29539 -3.54566
394 1 -12.4378 -7.16288 4.24187 -3.54014
395 1 -14.1341 -5.25245 4.33347 -3.42288
396 1 -10.4601 -6.97707 2.34688 -3.47116
397 1 -8.69572 -5.33592 2.29791 -3.4704
398 1 -8.86759 -7.06453 4.26022 -3.49284
399 1 -10.607 -5.35622 4.20421 -3.4812
400 1 -6.98498 -7.09753 2.28998 -3.48727
401 1 -5.25321 -5.38536 2.4289 -3.47391
402 1 -5.18422 -7.02301 4.15408 -3.48731
403 1 -7.1146 -5.2061 4.25173 -3.53357
404 1 -3.50583 -7.12013 2.27116 -3.49463
405 1 -1.78139 -5.31759 2.22551 -3.52012
406 1 -1.68685 -7.04391 4.18151 -3.47993
407 1 -3.48031 -5.24754 4.24665 -3.47843
408 1 0.0228561 -7.01668 2.19625 -3.52209
409 1 1.86913 -5.27854 2.19029 -3.51482
410 1 1.83012 -7.04051 4.05856 -3.47861
411 1 0.0137632 -5.29893 4.05101 -3.52661
412 1 3.605 -7.01234 2.29631 -3.48252
413 1 5.29339 -5.27529 2.26083 -3.44911
414 1 5.3952 -6.98364 4.26601 -3.46859
415 1 3.65936 -5.28308 4.17167 -3.48612
416 1 6.96739 -6.89441 2.26749 -3.49198
417 1 8.87462 -5.13182 2.1346 -3.51948
418 1 8.70366 -6.91654 4.0848 -3.46453
419 1 7.13795 -5.16209 4.05772 -3.43939
420 1 10.5347 -7.00424 2.28035 -3.47656
421 1 12.3155 -5.37611 2.17183 -3.4632
422 1 12.312 -7.30907 4.21459 -3.49627
423 1 10.6947 -5.2566 4.11883 -3.54425
424 1 14.1105 -7.22919 2.30758 -3.38128
425 1 15.8691 -5.43563 2.36752 -2.99463
426 1 15.6889 -6.92603 4.42716 -2.76971
427 1 13.8488 -5.27333 4.169 -3.45014
428 1 -15.964 -1.78163 2.43853 -3.13005
429 1 -15.8494 -3.36738 4.33718 -3.00936
430 1 -14.0502 -3.37158 2.52949 -3.40366
431 1 -12.3021 -1.78256 2.499 -3.46951
432 1 -12.1815 -3.51582 4.31367 -3.49208
433 1 -14.0298 -1.56914 4.38999 -3.47616
434 1 -10.5428 -3.56372 2.3195 -3.51883
435 1 -8.84359 -1.80997 2.33046 -3.49681
436 1 -8.92608 -3.47121 4.16678 -3.50577
437 1 -10.6139 -1.68945 4.2327 -3.46914
438 1 -7.06699 -3.60174 2.28116 -3.5029
439 1 -5.36707 -1.71989 2.23014 -3.54304
440 1 -5.22884 -3.44992 4.07057 -3.49889
441 1 -7.06127 -1.84158 4.17257 -3.513
442 1 -3.53388 -3.49486 2.30082 -3.51252
443 1 -1.67871 -1.68256 2.14891 -3.50922
444 1 -1.80349 -3.49356 4.02466 -3.4826
445 1 -3.42563 -1.66379 4.12797 -3.5006
446 1 -0.0562708 -3.59459 2.1929 -3.5098
447 1 1.8404 -1.93006 2.1414 -3.50568
448 1 1.93053 -3.57572 4.14259 -3.50286
449 1 0.173361 -1.84074 4.04621 -3.49446
450 1 3.56918 -3.61571 2.20129 -3.4485
451 1 5.33284 -1.88449 2.22147 -3.49274
452 1 5.43624 -3.54142 4.28339 -3.45795
453 1 3.56248 -1.68838 4.05436 -3.51957
454 1 7.07011 -3.48283 2.22194 -3.48678
455 1 8.98233 -1.76466 2.22522 -3.48206
456 1 8.94683 -3.37024 4.16047 -3.53589
457 1 6.91068 -1.7339 4.19991 -3.47043
458 1 10.7138 -3.43263 2.27206 -3.48287
459 1 12.4868 -1.53212 2.31134 -3.53532
460 1 12.4052 -3.2898 4.06825 -3.48284
461 1 10.6665 -1.56814 4.25317 -3.46447
462 1 14.0911 -3.63649 2.30196 -3.42505
463 1 15.9094 -2.04859 2.25093 -3.09454
464 1 15.6286 -3.72197 4.25587 -3.04715
465 1 14.2045 -1.5561 4.17168 -3.50097
466 1 -17.6122 0.0343629 2.27577 -2.46523
467 1 -16.0531 1.8147 2.01989 -3.16725
468 1 -15.9459 -0.0683607 4.37451 -3.13014
469 1 -14.2685 0.118657 2.43582 -3.51352
470 1 -12.5079 1.85998 2.39475 -3.46459
471 1 -12.3797 0.161894 4.2704 -3.50273
472 1 -14.5581 1.7949 4.24013 -3.47823
473 1 -10.4835 0.1073 2.36127 -3.50045
474 1 -8.83488 1.80496 2.30936 -3.47255
475 1 -8.82092 0.0146848 4.21829 -3.50451
476 1 -10.5206 1.79367 4.27226 -3.48584
477 1 -7.15565 0.0888933 2.21793 -3.49965
478 1 -5.2082 1.64429 2.2696 -3.47178
479 1 -5.34182 0.073091 4.13495 -3.50951
480 1 -7.07325 1.84249 4.20656 -3.51181
481 1 -3.43946 -0.00142192 2.31624 -3.42036
482 1 -1.82557 1.6491 2.21335 -3.48494
483 1 -1.686 0.0627829 4.23215 -3.47916
484 1 -3.41597 1.68776 4.34089 -3.48378
485 1 0.149357 -0.000458666 2.1407 -3.45697
486 1 1.89177 1.56907 2.27507 -3.44271
487 1 1.76373 -0.129825 4.14081 -3.46626
488 1 0.073422 1.71904 4.03845 -3.50151
489 1 3.5346 -0.0795482 2.05913 -3.41239
490 1 5.21704 1.67614 2.19756 -3.4811
491 1 5.34032 0.11324 4.06315 -3.4267
492 1 3.58115 1.72564 4.205 -3.50608
493 1 7.12562 -0.0731285 2.16282 -3.53559
494 1 8.88324 1.80206 2.24291 -3.4981
495 1 8.83199 0.0842813 4.22622 -3.4979
496 1 7.07477 1.74168 4.24524 -3.47398
497 1 10.5483 0.0763901 2.37236 -3.44368
498 1 12.5422 1.59992 2.08054 -3.47686
499 1 12.3836 0.211769 4.20223 -3.46225
500 1 10.6228 1.90105 4.19968 -3.48474
501 1 14.4817 -0.00819839 2.07413 -3.4958
502 1 15.9711 2.02258 2.38197 -3.03721
503 1 16.1924 0.014742 4.18434 -3.11319
504 1 14.3473 1.67179 4.19436 -3.4509
505 1 17.2188 -0.0157162 1.96798 -2.45915
506 1 -15.9883 5.1945 2.38652 -2.9405
507 1 -16.1332 3.72853 4.36295 -2.99635
508 1 -14.2142 3.56798 2.20209 -3.45172
509 1 -12.3961 5.27711 2.15513 -3.44565
510 1 -12.502 3.30168 4.32231 -3.49167
511 1 -14.0176 5.29474 4.25525 -3.45355
512 1 -10.6701 3.61785 2.32952 -3.49331
513 1 -8.80433 5.30453 2.27771 -3.51009
514 1 -8.95786 3.70457 4.24013 -3.46337
515 1 -10.8324 5.22741 4.17181 -3.47214
516 1 -6.88903 3.5455 2.31661 -3.5231
517 1 -5.27125 5.43755 2.36074 -3.49438
518 1 -5.15449 3.66062 4.20368 -3.50053
519 1 -7.11823 5.41903 4.17887 -3.48524
520 1 -3.55074 3.48443 2.35349 -3.50735
521 1 -1.82505 5.30222 2.35507 -3.50667
522 1 -1.69513 3.4546 4.23759 -3.51613
523 1 -3.43198 5.384 4.19236 -3.46604
524 1 0.0970248 3.50121 2.27687 -3.52511
525 1 1.69885 5.39143 2.28529 -3.50066
526 1 1.74029 3.54001 4.17083 -3.49313
527 1 -0.0825851 5.29085 4.12719 -3.51905
528 1 3.53767 3.48469 2.33341 -3.49426
529 1 5.16882 5.42777 2.18169 -3.5136
530 1 5.23426 3.6039 4.00062 -3.48378
531 1 3.4973 5.35759 4.21762 -3.5291
532 1 6.97493 3.46573 2.19679 -3.50971
533 1 8.81813 5.18436 2.19188 -3.47982
534 1 8.85762 3.52019 4.18763 -3.49503
535 1 7.0562 5.35689 4.2174 -3.49522
536 1 10.6774 3.46929 2.20651 -3.51096
537 1 12.4759 5.1906 2.31413 -3.50934
538 1 12.5176 3.48043 4.23306 -3.48196
539 1 10.7684 5.14755 4.1915 -3.51144
540 1 14.1179 3.32999 2.0973 -3.3128
541 1 15.8339 5.02422 2.26688 -3.00009
542 1 15.9923 3.56825 4.42318 -3.04548
543 1 14.158 5.29436 4.47653 -3.3085
544 1 -15.6728 7.00669 4.16734 -2.71745
545 1 -14.1298 6.95466 2.35057 -3.3365
546 1 -12.4632 8.87163 2.11188 -3.38956
547 1 -12.3681 7.10021 4.18831 -3.47572
548 1 -13.8857 9.08024 4.09828 -3.11943
549 1 -10.6775 6.96881 2.30171 -3.50281
550 1 -8.78006 8.80592 2.2237 -3.46642
551 1 -8.94848 7.29993 4.04238 -3.47722
552 1 -10.8533 9.05403 4.08168 -3.49392
553 1 -7.09311 7.13479 2.31716 -3.47478
554 1 -5.31701 8.90434 2.35218 -3.51737
555 1 -5.28646 7.02824 4.28643 -3.45229
556 1 -7.059 8.90882 4.21999 -3.51785
557 1 -3.53576 7.15533 2.17712 -3.50838
558 1 -1.83202 9.03001 2.17149 -3.51926
559 1 -1.78866 7.116 4.24578 -3.47325
560 1 -3.55039 8.87564 4.1359 -3.51001
561 1 -0.0558532 7.18342 2.22492 -3.52135
562 1 1.61426 9.02784 2.44614 -3.4228
563 1 1.66611 7.1688 4.15808 -3.50941
564 1 -0.0554859 8.82483 4.21548 -3.45529
565 1 3.48269 7.31968 2.32281 -3.50204
566 1 5.35908 8.81643 2.31426 -3.47635
567 1 5.31532 7.06148 4.24683 -3.50945
568 1 3.53938 8.82062 4.2142 -3.50084
569 1 7.06207 7.01643 2.23439 -3.53053
570 1 9.0146 8.71388 2.12105 -3.47914
571 1 8.92812 7.04131 4.1035 -3.48972
572 1 7.14304 8.74973 4.33767 -3.49848
573 1 10.5246 6.85779 2.20894 -3.44995
574 1 12.2997 8.70595 2.30228 -3.47026
575 1 12.4636 7.0876 4.25391 -3.4278
576 1 10.6549 8.7933 4.14152 -3.46248
577 1 14.3725 7.05508 2.2475 -3.33321
578 1 16.0707 6.41894 4.13132 -2.65669
579 1 14.323 8.52933 4.26351 -3.06971
580 1 -14.0073 10.7633 2.04212 -2.70112
581 1 -12.2465 12.6162 2.37124 -2.82356
582 1 -12.3349 10.8906 3.9917 -3.206
583 1 -10.5882 10.6752 2.1247 -3.52144
584 1 -8.77797 12.452 2.19533 -3.43951
585 1 -8.95851 10.6621 4.13588 -3.51041
586 1 -10.4836 12.4681 4.08417 -3.28887
587 1 -7.09302 10.7152 2.33323 -3.49474
588 1 -5.41619 12.522 2.33142 -3.49897
589 1 -5.25519 10.7553 4.19442 -3.51595
590 1 -7.23866 12.4854 4.12203 -3.53147
591 1 -3.61548 10.7265 2.24516 -3.51646
592 1 -1.86392 12.5264 2.04715 -3.42802
593 1 -1.82108 10.75 4.20264 -3.48755
594 1 -3.43135 12.4269 4.10107 -3.45897
595 1 -0.0388581 10.7727 2.32492 -3.50116
596 1 1.7581 12.5129 2.23893 -3.48162
597 1 1.65188 10.688 4.24498 -3.45203
598 1 0.0736797 12.4447 4.12405 -3.48592
599 1 3.42931 10.506 2.31089 -3.49268
600 1 5.19449 12.146 2.33063 -3.48648
601 1 5.43927 10.5071 4.22655 -3.50001
602 1 3.44954 12.4737 4.13416 -3.51896
603 1 7.18233 10.4083 2.27481 -3.50402
604 1 8.88177 12.3036 2.3044 -3.36082
605 1 8.94992 10.5059 4.09982 -3.47799
606 1 7.23039 12.2782 4.08927 -3.46324
607 1 10.6491 10.5445 2.07645 -3.46327
608 1 12.7539 11.9993 2.25548 -2.79734
609 1 12.5897 10.3338 4.29066 -3.31647
610 1 10.8521 12.1221 4.2144 -3.33001
611 1 14.4045 10.1283 2.3485 -2.6336
612 1 -10.4032 14.1794 2.14626 -2.68355
613 1 -9.066 14.346 3.98358 -3.02171
614 1 -6.99993 14.4191 2.24068 -3.33753
615 1 -5.20707 16.0257 2.29895 -2.92752
616 1 -5.33974 14.3072 4.10319 -3.4268
617 1 -7.15029 15.9828 4.17905 -2.67615
618 1 -3.52887 14.108 2.22869 -3.43132
619 1 -1.60322 15.8933 2.2681 -3.12925
620 1 -1.72413 14.3148 4.18183 -3.4541
621 1 -3.49673 15.9545 3.96245 -2.96452
622 1 0.138161 14.2382 2.17066 -3.46863
623 1 1.97856 15.8657 2.22873 -3.10275
624 1 1.81797 14.3083 4.17444 -3.44918
625 1 0.10729 15.9536 4.16527 -3.17291
626 1 3.63326 14.1597 2.1415 -3.43358
627 1 5.47962 15.8457 2.24877 -2.92534
628 1 5.40329 13.9721 3.97507 -3.40478
629 1 4.03028 15.8626 4.12738 -2.99247
630 1 7.29286 14.1815 2.30152 -3.26649
631 1 8.93153 13.9887 4.23794 -3.10977
632 1 7.00517 15.815 4.16905 -2.75917
633 1 10.8181 13.5827 2.30965 -2.71553
634 1 0.175827 17.497 2.10996 -2.32712
635 1 -5.14396 -15.685 6.20479 -3.03829
636 1 -6.80842 -15.6556 8.06827 -2.77698
637 1 -1.87636 -15.9521 6.04159 -2.99169
638 1 -3.67433 -15.7983 8.07991 -3.00076
639 1 -0.259967 -17.5313 6.34489 -2.25445
640 1 1.78724 -16.0388 6.16678 -3.12919
641 1 0.123996 -15.9788 8.36137 -3.17605
642 1 5.10116 -16.1735 6.13013 -2.92422
643 1 3.65571 -15.928 8.04724 -3.02273
644 1 6.74369 -16.0263 8.00121 -2.75926
645 1 -12.4481 -12.2962 6.1903 -2.85596
646 1 -10.5258 -14.1229 6.10348 -2.72672
647 1 -8.74993 -12.3194 6.03863 -3.42927
648 1 -8.79479 -14.0652 7.91119 -3.10607
649 1 -10.5704 -12.3687 7.96177 -3.35392
650 1 -7.14439 -14.1895 6.03978 -3.27674
651 1 -5.26667 -12.5233 6.16788 -3.51005
652 1 -5.17585 -13.9082 8.1875 -3.37821
653 1 -7.04719 -12.43 8.09525 -3.4955
654 1 -3.31547 -13.9833 6.24054 -3.45419
655 1 -1.6267 -12.3284 6.16108 -3.46389
656 1 -1.72944 -14.1125 8.3215 -3.43007
657 1 -3.36589 -12.2457 8.00044 -3.43294
658 1 -0.096656 -14.25 6.36025 -3.50179
659 1 1.75636 -12.3771 6.31173 -3.51175
660 1 1.88011 -14.2428 8.00256 -3.42475
661 1 0.0250484 -12.353 8.14511 -3.50808
662 1 3.56274 -14.2098 6.14986 -3.47903
663 1 5.27409 -12.4125 6.10566 -3.50377
664 1 5.22912 -14.1768 8.14792 -3.39103
665 1 3.52101 -12.4456 8.09296 -3.49024
666 1 6.82854 -14.3169 6.11775 -3.37165
667 1 8.62729 -12.688 5.96036 -3.42667
668 1 8.74687 -14.3969 7.87551 -3.08899
669 1 7.06022 -12.6269 8.05633 -3.46521
670 1 10.6333 -14.0798 6.01847 -2.6942
671 1 12.3107 -12.2979 6.30917 -2.80879
672 1 10.5032 -12.446 7.98009 -3.33992
673 1 -14.1256 -10.4528 6.10417 -2.74764
674 1 -12.2316 -8.94478 6.25799 -3.43414
675 1 -12.4038 -10.6377 7.96758 -3.30514
676 1 -14.034 -8.8309 8.08303 -3.12664
677 1 -10.5214 -10.6069 6.12672 -3.47905
678 1 -8.7126 -8.93381 6.03377 -3.47681
679 1 -8.70122 -10.6021 8.04176 -3.47846
680 1 -10.4332 -8.9635 8.13404 -3.51936
681 1 -6.93052 -10.6453 6.15676 -3.53277
682 1 -5.11364 -8.89104 6.05352 -3.49481
683 1 -5.19821 -10.6071 8.15787 -3.51513
684 1 -6.99372 -8.97512 8.19942 -3.45128
685 1 -3.56603 -10.7608 6.21618 -3.45948
686 1 -1.80718 -8.94519 6.28044 -3.46044
687 1 -1.62031 -10.5797 7.94645 -3.41894
688 1 -3.51245 -8.77162 8.17511 -3.50913
689 1 0.147299 -10.4567 6.18822 -3.51279
690 1 2.00929 -8.65569 5.95214 -3.50986
691 1 1.86872 -10.4081 7.99376 -3.47977
692 1 0.180752 -8.65549 7.96876 -3.45821
693 1 3.62758 -10.4941 6.10924 -3.50387
694 1 5.44729 -8.7957 6.0655 -3.51609
695 1 5.36742 -10.7892 8.05461 -3.51926
696 1 3.64613 -8.83429 8.03831 -3.50238
697 1 7.08907 -10.7609 6.12858 -3.46944
698 1 8.71373 -8.9796 6.19619 -3.47244
699 1 8.71674 -10.7804 7.96411 -3.43278
700 1 7.00825 -8.82256 8.00709 -3.51285
701 1 10.5508 -10.7044 6.0013 -3.50003
702 1 12.1809 -8.68161 6.32438 -3.36739
703 1 12.3242 -10.5436 8.10457 -3.27809
704 1 10.4385 -9.05428 8.0423 -3.46141
705 1 13.9432 -10.3125 6.16634 -2.77428
706 1 14.1697 -8.84462 8.08932 -3.06702
707 1 -15.8674 -5.4065 6.29923 -2.9514
708 1 -15.8305 -7.14457 8.12619 -2.715
709 1 -14.1366 -7.27189 6.12056 -3.38478
710 1 -12.1827 -5.40856 6.0744 -3.52674
711 1 -12.1903 -7.20218 8.1036 -3.47067
712 1 -14.0292 -5.40468 7.94925 -3.4766
713 1 -10.3981 -7.17487 6.24383 -3.48828
714 1 -8.79739 -5.2993 6.14724 -3.52597
715 1 -8.61309 -7.21139 8.09929 -3.4838
716 1 -10.3975 -5.50089 8.04273 -3.47726
717 1 -7.08346 -7.16242 6.20426 -3.50386
718 1 -5.29935 -5.34045 6.14755 -3.52483
719 1 -5.26478 -7.08946 8.11786 -3.51805
720 1 -6.93594 -5.2322 8.03771 -3.51335
721 1 -3.43578 -7.0691 6.14101 -3.51491
722 1 -1.71581 -5.242 5.9102 -3.44373
723 1 -1.74806 -6.92261 8.06184 -3.51344
724 1 -3.54468 -5.26237 7.96056 -3.47033
725 1 -0.0363424 -7.06407 6.03045 -3.52736
726 1 1.84953 -5.44418 5.88265 -3.48777
727 1 1.90179 -7.05947 7.89496 -3.47768
728 1 0.171658 -5.3758 8.01734 -3.47147
729 1 3.72123 -6.93771 6.02478 -3.46994
730 1 5.51187 -5.21836 6.26793 -3.47284
731 1 5.27055 -6.95445 8.09027 -3.49697
732 1 3.61454 -5.26593 8.01314 -3.43936
733 1 7.1061 -6.98286 6.10207 -3.4895
734 1 8.83546 -5.16924 6.02471 -3.50344
735 1 8.76089 -6.98752 8.04954 -3.48547
736 1 7.28857 -5.12987 8.19164 -3.47114
737 1 10.558 -7.04752 5.99793 -3.45699
738 1 12.2703 -5.22632 6.11379 -3.51081
739 1 12.2541 -6.9554 8.09615 -3.4421
740 1 10.5891 -5.18436 8.10168 -3.51169
741 1 13.9859 -7.09291 6.19385 -3.37895
742 1 15.6978 -5.1821 6.22816 -3.02426
743 1 15.749 -6.96745 7.99786 -2.75006