ITEM: TIMESTEP
188000
ITEM: NUMBER OF ATOMS
3804
ITEM: BOX BOUNDS ss ss pp
-1.7434622327113370e+01 1.8126873422281754e+01
-1.7509872514570830e+01 1.6009120474297660e+01
-4.0777200000000002e+00 4.7457720000000002e+01
ITEM: ATOMS id type x y z c_peratom
1 1 -5.85231 -14.5013 -3.66223 -2.97487
2 1 -7.32302 -14.764 -1.79279 -2.73434
3 1 -2.59485 -14.4773 -3.79534 -3.02602
4 1 -4.21374 -14.83 -1.84673 -2.92067
5 1 -0.15472 -15.3727 -3.37095 -2.69697
6 1 1.5531 -15.4672 46.5016 -2.82848
7 1 -0.138803 -14.1099 -1.27048 -3.16897
8 1 5.78726 -14.5037 47.3708 -2.77321
9 1 4.06515 -14.4098 -2.36069 -3.00905
10 1 6.71045 -13.3401 0.079324 -2.8647
11 1 -12.5665 -10.6887 -3.58518 -2.86875
12 1 -10.9205 -12.4907 -3.45874 -2.72909
13 1 -9.19481 -10.8201 -3.42804 -3.45607
14 1 -9.25368 -13.191 -1.53398 -3.02922
15 1 -10.89 -10.9622 -1.55022 -3.34537
16 1 -7.7444 -12.8545 -3.67244 -3.30294
17 1 -5.96691 -11.1016 -3.2894 -3.48851
18 1 -5.86783 -12.8904 -1.65008 -3.42147
19 1 -7.55884 -11.0551 -1.40041 -3.48717
20 1 -4.20705 -12.8258 -3.41548 -3.3611
21 1 -2.35298 -12.6457 45.99 -3.42373
22 1 -2.42105 -13.1546 -1.64192 -3.37351
23 1 -3.97243 -11.2735 -1.34536 -3.47001
24 1 -0.717167 -14.4791 45.8754 -3.22966
25 1 1.19459 -13.0443 46.0714 -3.43139
26 1 1.65383 -13.891 -2.90621 -3.31625
27 1 -0.628565 -12.9085 -3.62992 -3.48802
28 1 3.49393 -13.7939 46.8505 -3.33599
29 1 5.29037 -11.9924 46.8658 -3.51969
30 1 6.03505 -12.7741 -2.21291 -3.27035
31 1 3.5994 -12.0503 -2.75661 -3.49784
32 1 7.65494 -12.6792 -4.21396 -3.12507
33 1 9.59396 -11.0794 -3.87134 -3.18348
34 1 8.51562 -11.7356 0.583612 -2.95049
35 1 7.86262 -11.1047 -2.00917 -3.37312
36 1 10.0936 -11.5965 -1.08611 -2.63567
37 1 12.09 -9.64462 -1.22866 -2.85225
38 1 10.3647 -9.9847 0.75021 -3.2212
39 1 -14.399 -8.94939 -3.44804 -2.85844
40 1 -12.6102 -7.36487 -3.26912 -3.4594
41 1 -12.8517 -9.34755 -1.43403 -3.26751
42 1 -14.2105 -7.40386 -1.35434 -3.22829
43 1 -10.9036 -9.0718 -3.42294 -3.43479
44 1 -9.14505 -7.3305 -3.13201 -3.51824
45 1 -9.18443 -9.33222 -1.25969 -3.43685
46 1 -11.0395 -7.56248 -1.2812 -3.51611
47 1 -7.44372 -9.08535 -3.18585 -3.50506
48 1 -5.6808 -9.03546 46.3644 -3.49629
49 1 -5.58407 -9.43903 -1.4005 -3.49203
50 1 -7.40192 -7.67997 -1.11779 -3.49746
51 1 -3.9085 -10.8745 46.2578 -3.4559
52 1 -2.02902 -9.18647 46.4998 -3.50565
53 1 -2.41825 -11.231 -3.3864 -3.4666
54 1 -4.00975 -9.41514 -3.21645 -3.50715
55 1 -0.296846 -10.9073 46.3115 -3.48087
56 1 1.48535 -9.09566 46.3444 -3.44184
57 1 1.25376 -11.3237 -3.27615 -3.44997
58 1 -0.284974 -9.53551 -3.28242 -3.45611
59 1 2.96791 -11.2133 46.2788 -3.50319
60 1 4.7426 -9.60107 46.4781 -3.44219
61 1 5.50336 -10.3781 -2.64699 -3.49709
62 1 3.10011 -9.62524 -2.9466 -3.47146
63 1 7.28847 -10.2815 47.1623 -3.4325
64 1 8.98122 -8.45443 47.1795 -3.46546
65 1 9.68909 -9.31902 -1.75667 -3.40686
66 1 7.07977 -8.645 -2.1466 -3.44446
67 1 11.3285 -9.23774 -3.63415 -3.24872
68 1 13.1796 -7.37697 -3.41486 -3.20364
69 1 12.12 -8.18565 0.873089 -3.25534
70 1 11.4906 -7.38499 -1.68503 -3.40634
71 1 13.8025 -7.87786 -1.02772 -2.7609
72 1 13.8687 -6.39694 0.947399 -3.10817
73 1 -16.7656 -4.76829 -3.86135 -2.57609
74 1 -16.0132 -5.69813 -1.1193 -2.94062
75 1 -14.2721 -5.54429 -2.99773 -3.39164
76 1 -12.7576 -3.68053 -3.00365 -3.44087
77 1 -12.5796 -5.61994 -1.01492 -3.46
78 1 -14.2359 -3.93304 -1.08981 -3.4407
79 1 -10.9486 -5.50608 -3.0482 -3.5234
80 1 -8.89088 -5.49247 46.5018 -3.47248
81 1 -9.35243 -5.93988 -1.03909 -3.44429
82 1 -10.72 -3.90523 -1.13558 -3.48227
83 1 -7.39933 -7.28754 46.5258 -3.45462
84 1 -5.73996 -5.56977 46.7048 -3.50481
85 1 -5.6153 -7.35746 -2.9538 -3.51482
86 1 -7.42692 -5.58692 -2.7615 -3.43194
87 1 -3.84173 -7.45568 46.6487 -3.5187
88 1 -2.06015 -5.67275 46.6149 -3.51095
89 1 -2.09374 -7.59087 -3.01535 -3.47938
90 1 -3.61834 -5.82918 -2.89663 -3.43849
91 1 -0.25278 -7.47551 46.5607 -3.49496
92 1 1.46153 -5.73356 46.8087 -3.4924
93 1 1.46782 -7.72535 -3.04896 -3.51424
94 1 -0.191664 -5.96883 -2.87344 -3.48725
95 1 3.38943 -7.4633 46.6529 -3.49873
96 1 5.25399 -5.80109 46.7821 -3.48324
97 1 4.83586 -7.93066 -2.8961 -3.46141
98 1 3.31306 -5.91125 -2.78064 -3.53398
99 1 6.49756 -8.0924 46.8446 -3.4311
100 1 8.27899 -6.07465 46.9375 -3.50765
101 1 9.08264 -6.99339 -2.1994 -3.50081
102 1 6.68545 -6.12698 -2.71398 -3.49078
103 1 10.847 -6.73826 -4.06646 -3.49283
104 1 12.6304 -5.06406 -3.70913 -3.4794
105 1 13.2196 -5.35188 -1.26799 -3.32333
106 1 10.8373 -5.07216 -1.91915 -3.50103
107 1 15.0725 -5.73141 -3.0322 -3.06191
108 1 16.5611 -3.74099 -3.29403 -2.79734
109 1 15.6244 -4.50088 1.27026 -2.74713
110 1 15.1147 -3.74837 -1.13135 -3.22
111 1 -15.69 -0.717272 -3.87279 -3.11642
112 1 -16.5663 -3.3347 -1.67733 -2.8829
113 1 -15.0369 -3.20611 -3.67041 -3.2909
114 1 -13.222 -2.98274 46.0368 -3.52698
115 1 -12.5342 -2.08502 -0.932267 -3.53361
116 1 -14.886 -1.45663 -1.51743 -3.38867
117 1 -10.8331 -3.72826 46.6158 -3.51759
118 1 -9.11004 -1.94157 46.8827 -3.43947
119 1 -9.01662 -3.95301 -3.02945 -3.4125
120 1 -10.7344 -2.06005 -2.81884 -3.51359
121 1 -7.34823 -3.54826 46.7696 -3.46855
122 1 -5.37437 -1.97869 47.0119 -3.48677
123 1 -5.57599 -3.95022 -2.64974 -3.49726
124 1 -7.27727 -2.23144 -2.56164 -3.49076
125 1 -3.89911 -4.01571 46.9494 -3.47465
126 1 -2.00843 -2.40136 47.0429 -3.48901
127 1 -1.87639 -4.1339 -2.63726 -3.47247
128 1 -3.67326 -2.24705 -2.65648 -3.49912
129 1 -0.201251 -4.01213 47.002 -3.46619
130 1 1.59109 -2.25649 47.0831 -3.5316
131 1 1.56605 -4.16635 -2.71549 -3.51791
132 1 -0.176085 -2.35055 -2.41554 -3.49379
133 1 3.40878 -3.92824 46.9584 -3.4988
134 1 5.07708 -2.22918 47.1859 -3.44305
135 1 5.11546 -4.12133 -2.59892 -3.45201
136 1 3.39093 -2.48903 -2.53977 -3.46892
137 1 6.83545 -3.86149 47 -3.4505
138 1 8.64069 -2.37223 47.2364 -3.46934
139 1 8.50661 -4.50999 -2.62322 -3.50024
140 1 6.90514 -2.61782 -2.35887 -3.45748
141 1 10.2911 -4.27099 47.0609 -3.49199
142 1 11.9087 -2.51731 -4.29235 -3.48386
143 1 12.7459 -3.16008 -1.94719 -3.45596
144 1 10.3379 -2.60198 -2.35972 -3.51648
145 1 14.3504 -3.17111 -3.88881 -3.44597
146 1 16.1483 -1.29819 -3.70233 -3.10599
147 1 16.7698 -1.92515 -1.19387 -2.79712
148 1 14.4822 -1.373 -1.66503 -3.48652
149 1 -17.2135 1.77646 40.5551 -2.59302
150 1 -16.1653 0.239787 45.161 -2.97867
151 1 -15.4151 0.97018 -1.90474 -3.23427
152 1 -13.9514 -0.587517 45.7603 -3.45841
153 1 -11.9785 1.09781 46.045 -3.51342
154 1 -13.2808 -1.3385 -3.49831 -3.49203
155 1 -13.8648 0.993387 -3.90772 -3.44204
156 1 -11.3113 -1.28734 46.2235 -3.4862
157 1 -9.56186 0.519523 46.5773 -3.483
158 1 -8.92413 -0.361788 -2.48572 -3.51977
159 1 -11.305 0.316657 -3.16303 -3.48311
160 1 -7.2248 -0.193237 47.1632 -3.53286
161 1 -5.3494 1.52664 47.2909 -3.51014
162 1 -5.5247 -0.442346 -2.39874 -3.52816
163 1 -7.15908 1.63829 -2.24983 -3.49671
164 1 -3.65181 -0.355367 47.2742 -3.48893
165 1 -1.75314 1.37897 47.6795 -3.49821
166 1 -1.93572 -0.64248 -2.1926 -3.44296
167 1 -3.61852 1.2298 -2.13625 -3.46279
168 1 -0.160627 -0.462958 47.3506 -3.52203
169 1 1.60093 1.31088 47.4492 -3.52716
170 1 1.69268 -0.651442 -2.33444 -3.51359
171 1 -0.171705 1.11417 -2.03819 -3.49041
172 1 3.51512 -0.381538 47.1537 -3.44103
173 1 5.14531 1.28099 -3.93278 -3.49861
174 1 5.12386 -0.689995 -2.35543 -3.52994
175 1 3.37194 1.045 -2.10304 -3.45792
176 1 6.90219 -0.425128 47.3746 -3.5159
177 1 8.72944 1.40958 -4.01305 -3.52668
178 1 8.59677 -0.742747 -2.23568 -3.50081
179 1 7.12463 1.11802 -2.04946 -3.46705
180 1 10.3571 -0.607248 47.4243 -3.51924
181 1 12.1473 1.15446 -3.9164 -3.49966
182 1 12.0224 -0.718289 -2.07641 -3.46935
183 1 10.4127 1.01402 -1.92472 -3.47532
184 1 13.7188 -0.718628 -4.06981 -3.50385
185 1 15.5482 0.938078 -3.73249 -3.28583
186 1 16.4731 0.479752 -1.42439 -3.08801
187 1 13.7826 1.10563 -1.95025 -3.49919
188 1 17.1656 1.02312 45.8882 -2.7404
189 1 -14.8305 4.37747 45.1561 -2.97426
190 1 -16.3137 1.55047 47.3131 -2.76181
191 1 -14.3607 1.9502 45.385 -3.36313
192 1 -12.4432 3.56872 45.7449 -3.50619
193 1 -11.9348 2.76348 -3.38425 -3.50136
194 1 -14.4598 3.40938 47.6101 -3.34461
195 1 -10.1271 2.96644 46.126 -3.51272
196 1 -8.3473 4.72881 46.4075 -3.49736
197 1 -9.6168 1.99626 -2.78754 -3.47307
198 1 -10.2153 4.48012 -3.29265 -3.49891
199 1 -7.86152 2.24737 46.8298 -3.49699
200 1 -5.93967 3.94957 47.1838 -3.52656
201 1 -5.14897 3.15034 -1.96193 -3.46116
202 1 -7.84927 3.90925 -2.56313 -3.4374
203 1 -3.51851 3.22309 -3.75535 -3.49204
204 1 -1.69984 5.02785 -3.72282 -3.51974
205 1 -1.71553 3.13698 -2.01531 -3.49255
206 1 -3.48171 5.03132 -1.82255 -3.49927
207 1 0.0232556 3.12738 -3.731 -3.49002
208 1 1.83348 4.89114 -3.67932 -3.49784
209 1 1.82842 2.91989 -2.0771 -3.50522
210 1 0.0233905 4.83712 -1.82582 -3.47015
211 1 3.39571 3.11566 -3.97172 -3.46318
212 1 5.10904 4.79565 -3.86587 -3.46044
213 1 5.09439 3.03613 -1.93979 -3.4902
214 1 3.52666 4.77238 -1.82682 -3.47174
215 1 6.92488 3.18679 -3.77869 -3.45075
216 1 8.76711 4.75166 -3.66641 -3.49348
217 1 8.84113 2.83272 -1.79576 -3.46517
218 1 6.95013 4.66378 -1.8041 -3.50561
219 1 10.5775 3.07056 -3.85163 -3.50561
220 1 12.3783 4.97595 -3.48494 -3.52587
221 1 12.0807 2.99932 -1.83683 -3.48459
222 1 10.4822 4.71575 -1.77439 -3.47877
223 1 13.9047 2.98159 -3.56449 -3.51074
224 1 15.9677 4.60016 -3.43935 -3.09789
225 1 15.6603 2.67337 -1.72395 -3.20737
226 1 14.1653 4.66937 -1.59858 -3.48005
227 1 -14.7521 6.01466 47.3402 -2.86376
228 1 -13.0521 6.0071 45.323 -3.37195
229 1 -11.2687 7.83222 45.6156 -3.44369
230 1 -12.497 5.34079 -3.94937 -3.40472
231 1 -13.1167 8.05989 -4.32183 -3.11204
232 1 -10.7111 5.46193 46.018 -3.45881
233 1 -8.90277 7.22087 46.0165 -3.49746
234 1 -8.30728 6.18572 -3.11933 -3.51063
235 1 -10.7685 7.10303 -3.56821 -3.50485
236 1 -6.46763 6.451 46.6979 -3.49312
237 1 -4.70105 8.27089 46.9511 -3.47684
238 1 -5.9896 5.58609 -2.31082 -3.51323
239 1 -6.46353 8.00192 -2.91152 -3.49231
240 1 -4.1556 5.72647 47.1954 -3.52705
241 1 -2.32017 7.50116 47.4278 -3.52804
242 1 -1.60337 6.59718 -1.66286 -3.49302
243 1 -4.14417 7.4067 -2.1861 -3.49249
244 1 0.169949 6.76122 -3.55742 -3.50595
245 1 1.923 8.60757 -3.30279 -3.51926
246 1 1.82913 6.6451 -1.63262 -3.533
247 1 0.0433328 8.56653 -1.32438 -3.48224
248 1 3.51723 6.72257 -3.64154 -3.49338
249 1 5.26882 8.69021 -3.35241 -3.48721
250 1 5.25806 6.50599 -1.70423 -3.50868
251 1 3.64216 8.37425 -1.40643 -3.5008
252 1 6.90402 6.70324 -3.4849 -3.5257
253 1 8.74412 8.47951 -3.35214 -3.50847
254 1 8.57905 6.66013 -1.51954 -3.48077
255 1 6.99969 8.51642 -1.44793 -3.49521
256 1 10.5391 6.66586 -3.4826 -3.51331
257 1 12.4855 8.39027 -3.18304 -3.41988
258 1 12.2661 6.57285 -1.43051 -3.48555
259 1 10.5405 8.28684 -1.47368 -3.4968
260 1 14.3645 6.6549 -3.51912 -3.35732
261 1 15.9804 6.49041 -1.41699 -2.6004
262 1 14.1916 8.21208 -1.31324 -3.05351
263 1 -13.6312 8.37598 44.7912 -2.85813
264 1 -11.9061 10.3177 45.5604 -2.83805
265 1 -11.4208 9.55349 -3.76933 -3.13889
266 1 -9.6789 9.59423 45.7252 -3.40439
267 1 -7.77128 11.2724 46.08 -3.35964
268 1 -9.02073 8.6979 -3.41847 -3.49439
269 1 -9.51023 11.1484 -3.69508 -3.24897
270 1 -7.06547 8.77422 46.3029 -3.47282
271 1 -5.36767 10.541 46.504 -3.49991
272 1 -4.72642 9.75724 -2.50104 -3.48348
273 1 -7.24046 10.3918 -3.22777 -3.51286
274 1 -2.89096 9.9111 47.1777 -3.49206
275 1 -1.28735 11.8036 47.3445 -3.46551
276 1 -2.3298 9.07551 -2.0019 -3.51075
277 1 -2.95928 11.7121 -2.24873 -3.45777
278 1 -0.486142 9.25959 -3.76817 -3.51619
279 1 1.31293 11.0569 -3.74469 -3.49767
280 1 1.904 10.2211 -1.31238 -3.51593
281 1 -0.514024 10.9434 -1.85219 -3.51492
282 1 3.5915 10.3815 -3.15906 -3.4609
283 1 5.31771 12.306 -3.02678 -3.49798
284 1 5.16771 10.4732 -1.25975 -3.45
285 1 3.5121 12.0753 -1.19298 -3.44031
286 1 7.10211 10.4885 -3.26709 -3.48393
287 1 9.00093 12.0394 -3.09816 -3.371
288 1 8.8121 10.0914 -1.25965 -3.48847
289 1 7.21422 11.9547 -1.14981 -3.53332
290 1 10.7384 10.1347 -3.04741 -3.49191
291 1 12.7537 11.7615 -2.89165 -2.80257
292 1 12.5574 9.82136 -1.22735 -3.2795
293 1 10.6413 11.6693 -1.07956 -3.35228
294 1 14.3864 9.74317 -3.18017 -2.71608
295 1 -10.0511 12.0033 45.4165 -2.73254
296 1 -7.75378 12.9398 -3.54775 -2.98783
297 1 -6.08671 13.0302 46.163 -3.22009
298 1 -4.17245 14.6282 46.2667 -2.88527
299 1 -5.39264 12.068 -2.90905 -3.48459
300 1 -5.9517 14.4507 -3.47102 -2.68248
301 1 -3.61763 12.2277 46.7465 -3.49905
302 1 -1.76305 14.2194 46.9023 -3.17917
303 1 -1.14978 13.6226 -2.23388 -3.31869
304 1 -3.55193 13.9095 -2.89635 -3.13869
305 1 0.521388 13.3909 47.3961 -3.45713
306 1 2.44507 15.3416 -4.06128 -3.07395
307 1 1.12476 12.7134 -1.73434 -3.48862
308 1 0.739201 15.1007 -2.227 -2.95735
309 1 2.99598 12.9288 -3.64632 -3.52259
310 1 5.02253 14.6114 -3.41342 -3.09567
311 1 5.43707 13.802 -1.01533 -3.33426
312 1 3.16165 14.5081 -1.59688 -3.11744
313 1 7.3767 13.9372 -2.73414 -3.22117
314 1 9.09138 13.6374 -0.948921 -3.08803
315 1 7.13756 15.4952 -1.0236 -2.48978
316 1 10.7043 13.5153 -2.96548 -2.69408
317 1 -0.0590191 15.8122 47.0667 -2.6795
318 1 -5.76351 -14.9707 0.204937 -2.83223
319 1 -7.58646 -14.8964 1.9348 -2.57434
320 1 -1.81628 -14.0904 0.799921 -2.95372
321 1 -3.55884 -14.1947 2.43092 -2.81736
322 1 2.29667 -14.6471 -0.571989 -2.97929
323 1 4.80894 -15.1346 -0.0421416 -2.49187
324 1 0.568772 -14.664 1.21544 -2.68686
325 1 4.9612 -13.5495 2.10972 -2.9432
326 1 3.1862 -13.5541 3.85838 -2.88532
327 1 7.35413 -12.5627 4.75093 -2.72326
328 1 -12.7157 -10.9363 0.333762 -2.80424
329 1 -11.0517 -12.9699 0.137896 -2.7117
330 1 -9.20005 -11.323 0.486945 -3.47333
331 1 -9.52674 -13.3105 2.07091 -3.08052
332 1 -11.1102 -11.5261 2.32283 -3.29379
333 1 -7.50341 -13.1184 0.169575 -3.3516
334 1 -5.73714 -11.2199 0.349124 -3.53438
335 1 -5.92862 -13.2227 2.0639 -3.27672
336 1 -7.54746 -11.5685 2.23205 -3.48279
337 1 -4.17231 -13.2438 0.215042 -3.34465
338 1 -2.24679 -11.4948 0.460158 -3.49577
339 1 -1.61976 -12.4138 3.02158 -3.34326
340 1 -3.92653 -11.6229 2.33701 -3.50673
341 1 0.125039 -12.2876 1.11955 -3.41742
342 1 1.74344 -12.2452 -0.81978 -3.51432
343 1 2.62365 -13.3332 1.46419 -3.27319
344 1 0.19082 -10.7722 3.15232 -3.48911
345 1 4.16872 -12.8109 -0.386999 -3.41701
346 1 5.99929 -11.0648 -0.18824 -3.48002
347 1 5.02359 -12.0124 4.27756 -3.3077
348 1 4.35675 -11.2809 1.79335 -3.49895
349 1 6.75906 -11.9986 2.31503 -3.20174
350 1 8.54443 -10.1054 2.45322 -3.35862
351 1 9.34855 -10.8179 4.94741 -3.07737
352 1 6.90549 -10.1923 4.33776 -3.46225
353 1 10.9784 -10.82 3.03731 -2.68587
354 1 12.6909 -9.00187 3.15612 -2.85334
355 1 11.139 -9.33557 5.23955 -3.22697
356 1 -14.7059 -9.05532 0.453283 -2.68843
357 1 -12.6908 -7.75419 0.604272 -3.4792
358 1 -12.7174 -9.52907 2.37282 -3.32166
359 1 -14.5228 -7.71784 2.54817 -3.06373
360 1 -10.9856 -9.59616 0.628207 -3.34414
361 1 -9.27628 -7.87836 0.743317 -3.49789
362 1 -9.35058 -9.6818 2.63355 -3.48637
363 1 -10.9895 -7.93955 2.5509 -3.43483
364 1 -7.4775 -9.50112 0.654951 -3.4985
365 1 -5.55195 -7.94637 0.924139 -3.43009
366 1 -5.73323 -9.71995 2.53306 -3.51446
367 1 -7.59374 -8.03369 2.75808 -3.48655
368 1 -3.7807 -9.54776 0.548307 -3.48625
369 1 -2.10743 -9.67521 -1.43203 -3.48719
370 1 -2.18897 -10.0133 2.66401 -3.44338
371 1 -3.86397 -8.07564 2.73814 -3.51424
372 1 -0.543612 -11.5223 -1.38622 -3.48788
373 1 1.29314 -9.69894 -1.17426 -3.50703
374 1 1.9185 -10.7012 1.36137 -3.51011
375 1 -0.448344 -9.79402 0.636541 -3.50495
376 1 3.60393 -10.4945 -0.60776 -3.49121
377 1 5.43582 -8.74201 -0.444002 -3.45751
378 1 6.2006 -9.51235 1.92648 -3.51267
379 1 3.79061 -8.85459 1.38408 -3.49834
380 1 8.02411 -9.41209 0.0258145 -3.49517
381 1 9.79337 -7.65855 0.198525 -3.51607
382 1 8.68562 -8.48186 4.65891 -3.49686
383 1 7.96967 -7.58945 2.20412 -3.52326
384 1 10.3174 -8.37814 2.74741 -3.47021
385 1 12.0965 -6.57019 2.97174 -3.46938
386 1 12.9026 -7.43511 5.37884 -3.24695
387 1 10.5048 -6.80587 4.86778 -3.5207
388 1 14.558 -7.14843 3.31934 -2.63764
389 1 14.6149 -5.55375 5.62241 -2.96634
390 1 -16.1989 -4.12749 0.831688 -3.06292
391 1 -16.15 -5.78182 2.65942 -2.74402
392 1 -14.3994 -5.85605 0.682245 -3.41501
393 1 -12.5026 -4.04989 0.910727 -3.50361
394 1 -12.7108 -6.24442 2.55959 -3.47651
395 1 -14.4267 -4.20684 2.75561 -3.42642
396 1 -10.9163 -5.92675 0.757718 -3.46809
397 1 -9.10993 -4.21685 0.824403 -3.46011
398 1 -9.29798 -6.14416 2.71634 -3.48725
399 1 -10.8786 -4.39278 2.83385 -3.48973
400 1 -7.26486 -6.21017 0.972468 -3.51067
401 1 -5.60801 -5.92461 -0.931976 -3.50473
402 1 -5.61834 -6.29146 2.78948 -3.46879
403 1 -7.3934 -4.5338 2.92732 -3.53313
404 1 -3.6244 -7.79136 -1.08008 -3.44498
405 1 -2.14797 -5.98117 -0.884274 -3.44625
406 1 -1.92207 -7.83894 0.866747 -3.45011
407 1 -3.84478 -6.12739 0.92724 -3.51351
408 1 -0.306225 -7.82469 -1.08264 -3.51088
409 1 1.40236 -6.13536 -0.994835 -3.48083
410 1 1.41704 -8.17422 0.968833 -3.51236
411 1 -0.188696 -6.21768 0.9659 -3.45748
412 1 3.10465 -7.92547 -1.00602 -3.52786
413 1 5.00665 -6.15948 -0.801771 -3.50175
414 1 5.49454 -7.1043 1.56831 -3.50624
415 1 3.16661 -6.30584 1.03626 -3.52015
416 1 7.34558 -6.92392 -0.27964 -3.52658
417 1 9.11049 -5.20349 0.00811124 -3.50621
418 1 9.79514 -5.97446 2.43836 -3.46145
419 1 7.2041 -5.24766 1.68275 -3.46048
420 1 11.5976 -5.79604 0.558418 -3.47085
421 1 13.3142 -4.02781 0.783507 -3.40951
422 1 12.2984 -4.96496 5.03487 -3.49203
423 1 11.6373 -4.12332 2.64256 -3.51873
424 1 13.9635 -4.81708 3.13041 -3.35449
425 1 15.8304 -2.93559 3.08174 -2.95842
426 1 16.1666 -3.49748 5.79286 -2.64643
427 1 14.0339 -3.09437 5.0753 -3.41643
428 1 -16.8143 -1.66989 0.217313 -2.91359
429 1 -16.2003 -2.53009 2.66792 -3.10266
430 1 -14.3859 -2.41648 1.04864 -3.47686
431 1 -12.3511 -0.515295 1.14225 -3.50736
432 1 -12.4907 -2.52563 2.94041 -3.4954
433 1 -14.1671 -0.722981 2.83393 -3.46103
434 1 -10.6725 -2.42766 1.02022 -3.46603
435 1 -9.01702 -2.29343 -0.710039 -3.40796
436 1 -9.01269 -2.62835 2.90337 -3.50933
437 1 -10.6705 -0.852654 3.11345 -3.49577
438 1 -7.33402 -4.04823 -0.782456 -3.47214
439 1 -5.37153 -2.47246 -0.668346 -3.51444
440 1 -5.52402 -4.29399 1.18928 -3.52651
441 1 -7.27375 -2.52326 1.12938 -3.49194
442 1 -3.82124 -4.25744 -0.804414 -3.44298
443 1 -2.1547 -2.53862 -0.621938 -3.47697
444 1 -2.11175 -4.3019 1.23037 -3.49368
445 1 -3.62987 -2.52423 1.2841 -3.43131
446 1 -0.326655 -4.1972 -0.830006 -3.48046
447 1 1.63204 -2.63131 -0.627108 -3.52064
448 1 1.43627 -4.55554 1.1872 -3.42695
449 1 -0.188831 -2.73889 1.19485 -3.51351
450 1 3.25689 -4.45783 -0.734784 -3.49678
451 1 4.99193 -2.65536 -0.584852 -3.51074
452 1 5.0076 -4.56562 1.14611 -3.48351
453 1 3.23088 -2.73946 1.40327 -3.51259
454 1 6.692 -4.43675 -0.683221 -3.4649
455 1 8.55284 -2.82404 -0.543106 -3.48024
456 1 9.27061 -3.65549 2.0107 -3.49943
457 1 6.84753 -2.75752 1.35318 -3.51129
458 1 10.9328 -3.45061 0.208766 -3.49963
459 1 12.6731 -1.65106 0.173895 -3.53054
460 1 13.4147 -2.29181 2.6191 -3.46705
461 1 11.0558 -1.66603 2.13195 -3.47817
462 1 15.0866 -2.14271 0.839371 -3.33787
463 1 16.9864 -0.431212 0.990811 -2.82739
464 1 15.8634 -1.13173 5.20921 -3.0682
465 1 15.0852 -0.511484 2.8572 -3.36277
466 1 -16.8561 0.901577 -0.00827621 -2.75829
467 1 -15.228 2.60391 0.260503 -3.32804
468 1 -16.493 -0.068679 2.39421 -3.12423
469 1 -14.6832 -0.0116476 0.49825 -3.46126
470 1 -13.1129 0.337152 -1.46612 -3.48762
471 1 -12.3397 0.992291 3.27634 -3.52501
472 1 -14.6887 1.66583 2.62164 -3.45941
473 1 -10.6794 -0.457113 -0.681491 -3.51504
474 1 -8.89953 1.24263 -0.422769 -3.50667
475 1 -8.90099 -0.683261 1.21199 -3.48565
476 1 -10.4513 1.15726 1.44686 -3.49248
477 1 -7.19772 -0.641595 -0.584895 -3.50839
478 1 -5.3593 1.18984 -0.390095 -3.4846
479 1 -5.37812 -0.85186 1.41246 -3.50592
480 1 -7.08301 1.00772 1.62684 -3.48866
481 1 -3.74422 -0.607085 -0.577765 -3.45246
482 1 -1.98339 1.20405 -0.342572 -3.50242
483 1 -1.87191 -0.898211 1.45688 -3.49277
484 1 -3.554 0.852036 1.65172 -3.47777
485 1 -0.150787 -0.763624 -0.448707 -3.51699
486 1 1.63087 1.01077 -0.313783 -3.51361
487 1 1.62464 -0.857827 1.55097 -3.51294
488 1 -0.162553 0.852773 1.58755 -3.51585
489 1 3.50105 -0.757775 -0.333879 -3.49348
490 1 5.21406 1.05678 -0.259303 -3.5264
491 1 5.12065 -0.978841 1.51175 -3.49789
492 1 3.45692 0.904608 1.60035 -3.51452
493 1 6.80657 -0.870192 -0.392843 -3.5456
494 1 8.58895 0.845571 -0.115255 -3.50619
495 1 8.58718 -1.0862 1.46907 -3.46672
496 1 6.87319 0.817118 1.79205 -3.51587
497 1 10.2223 -1.12473 -0.321424 -3.47443
498 1 11.9842 0.837568 -0.059343 -3.49929
499 1 12.7383 0.0575675 2.30193 -3.48248
500 1 10.2923 0.60746 1.70339 -3.47294
501 1 14.6536 0.286013 0.367675 -3.5095
502 1 16.3409 1.98447 0.612638 -3.10913
503 1 16.921 1.14913 2.82032 -2.84632
504 1 14.5339 1.85628 2.36139 -3.44366
505 1 17.349 2.40825 -3.54351 -2.57775
506 1 -16.1092 3.35308 -2.08057 -2.85097
507 1 -15.2473 4.22043 2.18085 -3.16447
508 1 -13.6447 2.75943 -1.6614 -3.45233
509 1 -11.8846 4.57963 -1.43506 -3.47309
510 1 -12.9662 1.87022 0.855569 -3.50159
511 1 -13.3855 4.38335 0.505159 -3.48268
512 1 -11.2717 2.01566 -0.991722 -3.49756
513 1 -9.53856 3.74257 -0.701122 -3.49519
514 1 -8.6793 2.92418 1.74414 -3.49089
515 1 -11.0819 3.5396 1.20309 -3.49449
516 1 -7.035 2.99134 -0.0917536 -3.48289
517 1 -5.17599 4.80312 -0.0421088 -3.49312
518 1 -5.32039 2.64723 1.6104 -3.50074
519 1 -7.03945 4.74463 1.69038 -3.46366
520 1 -3.46486 3.09971 -0.206384 -3.43451
521 1 -1.70902 4.66234 0.254249 -3.46076
522 1 -1.86577 2.63157 1.82755 -3.51653
523 1 -3.44737 4.52962 1.88366 -3.45274
524 1 -0.0635016 2.85885 -0.16653 -3.52765
525 1 1.68372 4.63146 -0.0694525 -3.4986
526 1 1.70043 2.56022 1.87598 -3.49318
527 1 0.0974629 4.42122 1.97331 -3.52418
528 1 3.45519 2.91117 -0.0162815 -3.4981
529 1 5.18076 4.59503 0.211745 -3.49046
530 1 5.15007 2.69391 1.80958 -3.4919
531 1 3.30186 4.43083 2.03598 -3.51083
532 1 6.92642 2.78358 0.127925 -3.48911
533 1 8.69861 4.66866 0.0976655 -3.53162
534 1 8.70931 2.54386 1.8448 -3.51929
535 1 6.87304 4.44101 1.99288 -3.48716
536 1 10.4314 2.6872 0.00079356 -3.46786
537 1 12.2069 4.48041 0.27223 -3.49681
538 1 12.1427 2.4893 1.88198 -3.52959
539 1 10.4343 4.37477 2.08571 -3.5069
540 1 13.984 2.65414 0.0011816 -3.47211
541 1 16.0085 4.47567 0.298472 -3.06279
542 1 16.3592 3.55172 2.73437 -3.11199
543 1 13.9822 4.11029 1.89009 -3.43401
544 1 -16.0727 4.9684 -0.113622 -2.64313
545 1 -14.4597 5.16892 -1.84168 -3.16207
546 1 -12.6768 6.90876 -1.81918 -3.34651
547 1 -11.6894 6.21414 0.721969 -3.46417
548 1 -14.2112 6.781 0.231394 -3.01451
549 1 -10.0685 6.22198 -1.17552 -3.51572
550 1 -8.23368 7.88183 -1.07611 -3.49197
551 1 -9.44081 5.52172 1.26362 -3.48369
552 1 -10.041 7.92941 0.807599 -3.46004
553 1 -7.75788 5.35148 -0.560955 -3.45698
554 1 -5.99357 7.28428 -0.504854 -3.4807
555 1 -5.19301 6.28566 2.02485 -3.47662
556 1 -7.65964 7.23656 1.27849 -3.45247
557 1 -3.47771 6.68282 0.191182 -3.53759
558 1 -1.5519 8.35604 0.528447 -3.44113
559 1 -1.72215 6.16818 2.23878 -3.4889
560 1 -3.23309 8.09785 2.30984 -3.47906
561 1 0.00962643 6.47356 0.228532 -3.51965
562 1 1.8027 8.30592 0.349424 -3.49704
563 1 1.69509 6.23325 2.17798 -3.41915
564 1 0.140849 8.05167 2.30347 -3.52391
565 1 3.45136 6.4555 0.242102 -3.52154
566 1 5.19604 8.20967 0.443195 -3.4381
567 1 5.1736 6.17192 2.12422 -3.52147
568 1 3.43566 7.92164 2.32023 -3.53313
569 1 6.94618 6.60147 0.255275 -3.47642
570 1 8.85248 8.12755 0.449919 -3.46365
571 1 8.69609 6.23088 2.03631 -3.4992
572 1 7.04604 7.97825 2.43355 -3.49044
573 1 10.5382 6.32971 0.370849 -3.49995
574 1 12.4323 8.00667 0.528359 -3.45289
575 1 12.2819 6.02827 2.25606 -3.50039
576 1 10.6623 7.84248 2.49094 -3.49119
577 1 14.1864 6.05595 0.428279 -3.33658
578 1 15.7814 5.85548 2.43068 -2.85144
579 1 14.0644 7.72476 2.31377 -3.12415
580 1 -12.976 9.27973 -1.99994 -2.70085
581 1 -11.2495 11.104 -1.63696 -2.8394
582 1 -12.4361 8.63799 0.380487 -3.19852
583 1 -10.7024 8.68339 -1.58912 -3.43796
584 1 -8.75919 10.2519 -1.12803 -3.46403
585 1 -8.21682 9.56864 1.24306 -3.43244
586 1 -10.6097 10.2373 0.647392 -3.23511
587 1 -6.40641 9.78749 -0.798572 -3.48005
588 1 -4.65909 11.4811 -0.599303 -3.45581
589 1 -5.7439 8.82531 1.55776 -3.48661
590 1 -6.2749 11.2495 1.3595 -3.45854
591 1 -3.99608 9.05562 -0.197404 -3.46336
592 1 -2.26598 10.6716 0.113985 -3.50226
593 1 -1.55573 9.86176 2.53458 -3.5006
594 1 -4.09171 10.5085 2.00602 -3.46117
595 1 0.119405 10.1205 0.71686 -3.48844
596 1 1.83302 11.9034 0.692545 -3.49364
597 1 1.82398 9.91729 2.61076 -3.51782
598 1 0.0730736 11.7114 2.82747 -3.48979
599 1 3.53091 10.0019 0.585459 -3.51328
600 1 5.4606 11.8123 0.774138 -3.50288
601 1 5.25204 9.66133 2.51236 -3.48465
602 1 3.73415 11.523 2.65553 -3.5002
603 1 6.9672 9.82917 0.63399 -3.50043
604 1 8.93989 11.6194 0.745745 -3.43181
605 1 8.89961 9.6797 2.37267 -3.53394
606 1 7.13337 11.4327 2.46886 -3.49979
607 1 10.6112 9.77745 0.529306 -3.49638
608 1 12.4007 11.501 0.672504 -2.87776
609 1 12.1836 9.69443 2.61779 -3.27574
610 1 10.633 11.5528 2.64114 -3.29903
611 1 14.0836 9.7929 0.736588 -2.70653
612 1 -9.31966 12.7096 -1.64968 -2.71512
613 1 -8.78283 11.8923 0.852156 -3.14381
614 1 -7.0926 12.0566 -1.11493 -3.23329
615 1 -5.39442 13.7313 -1.08453 -2.95977
616 1 -4.48061 13.1048 1.5974 -3.29415
617 1 -6.89104 13.4669 0.711213 -2.71827
618 1 -2.93174 13.2784 -0.378464 -3.33851
619 1 -0.972937 14.9628 -0.177433 -2.86195
620 1 -2.2886 12.3303 2.03828 -3.44531
621 1 -2.68472 14.7488 1.75138 -2.8779
622 1 -0.525095 12.5293 0.316356 -3.49199
623 1 1.4102 14.3832 0.388739 -3.22785
624 1 2.08781 13.3761 2.65268 -3.43548
625 1 -0.361762 14.1811 2.17534 -3.31981
626 1 3.76618 13.6437 0.890583 -3.35684
627 1 5.70564 15.2536 1.06329 -2.81063
628 1 5.55595 13.3306 2.86534 -3.39962
629 1 3.78236 15.043 2.93179 -2.99087
630 1 7.36497 13.6179 0.774043 -3.3182
631 1 8.79563 13.2821 2.71274 -3.12104
632 1 7.14329 14.9314 3.27812 -2.63894
633 1 10.5155 13.3023 0.922794 -2.7217
634 1 1.47756 15.7301 2.49522 -2.72987
635 1 -5.3708 -14.0322 4.36429 -2.87645
636 1 -7.14968 -14.104 6.48342 -2.70213
637 1 -1.11533 -13.1549 5.32379 -3.11123
638 1 -2.74669 -13.3571 7.08008 -3.10285
639 1 0.749778 -13.1537 3.48304 -3.22274
640 1 1.40762 -14.0164 5.79115 -2.76941
641 1 -0.34287 -14.0627 7.74033 -2.96303
642 1 5.7594 -12.7315 6.78038 -2.97666
643 1 4.0532 -12.8828 8.68754 -3.09822
644 1 6.34658 -13.4392 9.0994 -2.69642
645 1 -13.0648 -11.3902 4.07416 -2.8453
646 1 -11.2795 -13.0985 4.02589 -2.70867
647 1 -9.2775 -11.5999 4.15913 -3.44694
648 1 -9.59911 -13.3901 5.9078 -2.9736
649 1 -11.2856 -11.5922 5.97167 -3.32621
650 1 -7.73813 -13.4087 3.99457 -3.22532
651 1 -5.82611 -11.7125 4.17517 -3.4694
652 1 -5.21348 -12.7201 6.67285 -3.32308
653 1 -7.57795 -11.7773 6.05384 -3.42884
654 1 -3.452 -12.5131 4.85536 -3.30364
655 1 -1.55916 -10.8009 4.91388 -3.46625
656 1 -0.939883 -11.5488 7.39558 -3.5101
657 1 -3.4319 -10.9942 6.78621 -3.46848
658 1 0.924946 -11.5612 5.55282 -3.50319
659 1 2.75985 -11.2368 3.71278 -3.38015
660 1 1.57002 -12.5595 7.973 -3.35642
661 1 0.930934 -9.90482 7.57857 -3.524
662 1 3.23612 -12.2181 6.09738 -3.33679
663 1 5.13895 -10.4368 6.20218 -3.49637
664 1 5.81853 -11.079 8.8402 -3.45616
665 1 3.36881 -10.5026 8.08718 -3.51064
666 1 7.62033 -11.1462 6.86925 -3.3432
667 1 9.37307 -9.12978 7.14047 -3.43495
668 1 8.23965 -11.6622 9.22318 -3.10024
669 1 7.56477 -9.38363 9.0031 -3.4683
670 1 10.0829 -11.3625 7.21298 -2.73848
671 1 11.9516 -9.73794 7.4982 -2.84255
672 1 10.0851 -10.0248 9.35779 -3.34465
673 1 -14.5313 -9.49792 4.02864 -2.73997
674 1 -12.7016 -7.90365 4.38215 -3.42136
675 1 -13.0505 -9.89145 6.05718 -3.30358
676 1 -14.6502 -8.07724 6.28847 -3.1121
677 1 -11.1898 -9.73646 4.3268 -3.48291
678 1 -9.19186 -8.02159 4.58295 -3.5022
679 1 -9.16744 -9.95302 6.34083 -3.49439
680 1 -11.1055 -8.25878 6.38015 -3.55911
681 1 -7.50293 -9.9035 4.41532 -3.50142
682 1 -5.49452 -8.21506 4.60574 -3.50814
683 1 -5.71251 -10.3151 6.22604 -3.49651
684 1 -7.28085 -8.35937 6.41455 -3.53285
685 1 -3.905 -10.2114 4.40115 -3.4574
686 1 -2.05187 -8.41428 4.53292 -3.50364
687 1 -1.53687 -9.04828 7.01161 -3.50388
688 1 -3.88335 -8.41969 6.3362 -3.50144
689 1 0.291149 -9.11457 5.23621 -3.52223
690 1 1.99684 -8.99274 3.39548 -3.48722
691 1 2.61945 -9.82281 5.76477 -3.48001
692 1 0.372933 -7.3376 7.26919 -3.50393
693 1 4.49099 -9.60571 3.82441 -3.49746
694 1 6.18093 -7.74503 4.19967 -3.46048
695 1 5.24447 -8.6815 8.43353 -3.46578
696 1 4.53898 -8.08285 6.03126 -3.50234
697 1 6.9794 -8.59721 6.52726 -3.51626
698 1 8.68 -6.79568 6.59532 -3.46984
699 1 9.40911 -7.60047 9.37571 -3.46042
700 1 7.01421 -7.01403 8.58388 -3.49544
701 1 11.0567 -7.43433 7.336 -3.47888
702 1 13.0429 -5.63237 7.3485 -3.3033
703 1 11.9306 -8.20571 9.65138 -3.31907
704 1 11.2827 -5.7838 9.44187 -3.51016
705 1 13.4702 -7.93137 7.72511 -2.73446
706 1 13.614 -6.54417 9.84084 -3.10637
707 1 -16.1748 -4.21431 4.67111 -3.02335
708 1 -16.2342 -6.09735 6.49058 -2.71771
709 1 -14.5029 -6.20971 4.53539 -3.38297
710 1 -12.8074 -4.38542 4.67116 -3.52523
711 1 -12.7559 -6.31678 6.38017 -3.50147
712 1 -14.5298 -4.45499 6.55478 -3.44618
713 1 -10.9783 -6.22069 4.55706 -3.5037
714 1 -9.11446 -4.6129 4.86746 -3.49359
715 1 -9.11567 -6.52466 6.61949 -3.50158
716 1 -10.8997 -4.84154 6.7138 -3.45621
717 1 -7.40192 -6.44334 4.70108 -3.49838
718 1 -5.61268 -4.73757 4.65907 -3.43717
719 1 -5.51957 -6.52728 6.65948 -3.50248
720 1 -7.24457 -4.78583 6.66543 -3.51986
721 1 -3.83508 -6.29689 4.92958 -3.47127
722 1 -1.98838 -6.30604 3.03423 -3.49615
723 1 -1.93833 -6.7091 6.71124 -3.45953
724 1 -3.59994 -4.90506 7.01688 -3.45407
725 1 -0.364392 -8.31162 2.67974 -3.48388
726 1 1.48908 -6.60797 3.01794 -3.50238
727 1 2.07731 -7.34356 5.42296 -3.51259
728 1 -0.30566 -6.5754 4.79473 -3.48942
729 1 3.79503 -7.1744 3.62555 -3.481
730 1 5.71663 -5.51454 3.60523 -3.43463
731 1 6.40314 -6.2068 6.16616 -3.50748
732 1 3.98163 -5.60828 5.52842 -3.51529
733 1 8.03751 -6.06299 4.16836 -3.48744
734 1 9.84302 -4.39251 4.49582 -3.48693
735 1 8.88159 -5.28595 8.64454 -3.51445
736 1 8.16929 -4.33028 6.21953 -3.50297
737 1 10.5842 -5.04608 6.93563 -3.51603
738 1 12.4396 -3.22797 7.05703 -3.47856
739 1 12.9969 -4.05769 9.47109 -3.49654