ITEM: TIMESTEP
196000
ITEM: NUMBER OF ATOMS
3804
ITEM: BOX BOUNDS ss ss pp
-1.7402831464465748e+01 1.7820995976120997e+01
-1.7718892606643674e+01 1.6082567724148028e+01
-4.2512400000000001e+00 4.7631240000000005e+01
ITEM: ATOMS id type x y z c_peratom
1 1 -5.7458 -14.5775 -4.0548 -3.02024
2 1 -7.57131 -14.7021 -2.08828 -2.7302
3 1 -2.46869 -14.8262 -4.09684 -3.01296
4 1 -4.28441 -14.8781 -1.96643 -2.84602
5 1 -0.0495437 -15.6086 -3.62312 -2.69209
6 1 1.88523 -15.4742 46.713 -2.77017
7 1 -0.191237 -14.0997 -1.43244 -3.21146
8 1 5.87903 -13.9425 47.0747 -2.81347
9 1 4.13259 -14.3845 -2.75684 -2.96353
10 1 6.36158 -13.4743 0.233112 -2.83234
11 1 -12.5403 -11.0328 -3.94412 -2.8063
12 1 -10.615 -12.6335 -3.94776 -2.7769
13 1 -8.95288 -10.8313 -3.89038 -3.45145
14 1 -9.29404 -12.8403 -1.96243 -3.10162
15 1 -11.1595 -11.1718 -1.90052 -3.18738
16 1 -7.57265 -12.9649 -3.95109 -3.36974
17 1 -5.68196 -11.3463 -3.77855 -3.49179
18 1 -5.82473 -13.1257 -1.91479 -3.39797
19 1 -7.51318 -11.2254 -1.8111 -3.43342
20 1 -3.9988 -12.9443 -3.9488 -3.36705
21 1 -2.31728 -13.116 45.9398 -3.40209
22 1 -2.42032 -13.3401 -1.92622 -3.27604
23 1 -3.85606 -11.4204 -1.86444 -3.47859
24 1 -0.700986 -14.9552 45.9849 -3.14803
25 1 1.08351 -13.344 46.0099 -3.41123
26 1 1.69935 -13.87 -3.28788 -3.36023
27 1 -0.626754 -13.106 -3.82715 -3.47309
28 1 3.46437 -13.6695 46.7322 -3.31078
29 1 5.0984 -11.8147 46.9269 -3.41304
30 1 5.89713 -12.7798 -2.4094 -3.21624
31 1 3.57139 -12.14 -3.11559 -3.44802
32 1 7.69929 -12.5164 47.4452 -3.04245
33 1 9.34369 -10.8442 -3.88617 -3.18831
34 1 8.08858 -11.6982 0.311335 -3.02064
35 1 7.51842 -10.9327 -2.08313 -3.32164
36 1 9.93565 -11.5004 -1.61579 -2.71128
37 1 11.831 -9.74187 -1.45192 -2.85118
38 1 10.0625 -10.1178 0.404522 -3.20691
39 1 -14.2415 -8.99852 -3.75485 -2.84907
40 1 -12.492 -7.39381 -3.77868 -3.41388
41 1 -12.6702 -9.27046 -1.73567 -3.32057
42 1 -14.4677 -7.59291 -1.76521 -3.13356
43 1 -10.9695 -9.22082 -3.67858 -3.47323
44 1 -8.95612 -7.43217 -3.49119 -3.5041
45 1 -9.21181 -9.48932 -1.71901 -3.517
46 1 -10.7381 -7.5586 -1.7267 -3.49662
47 1 -7.15509 -9.10803 -3.5477 -3.4597
48 1 -5.49294 -9.34717 46.5886 -3.37755
49 1 -5.70302 -9.70883 -1.63071 -3.46505
50 1 -7.34272 -7.79096 -1.46275 -3.51609
51 1 -3.91521 -11.1555 46.3817 -3.44662
52 1 -2.16355 -9.17094 46.4044 -3.51019
53 1 -2.24929 -11.1168 -3.8196 -3.4109
54 1 -3.91643 -9.43041 -3.47125 -3.50011
55 1 -0.556801 -11.3896 46.2746 -3.48464
56 1 1.08526 -9.43274 46.6476 -3.51075
57 1 1.05305 -11.3853 -3.61257 -3.44818
58 1 -0.536502 -9.48193 -3.33252 -3.43523
59 1 2.66899 -11.3068 46.3939 -3.52598
60 1 4.52298 -9.32659 46.5092 -3.40164
61 1 5.32046 -10.302 -2.91938 -3.4742
62 1 2.78736 -9.75508 -3.31215 -3.50503
63 1 7.026 -10.1336 47.0488 -3.50247
64 1 8.85406 -8.35076 47.4968 -3.49064
65 1 9.39314 -9.14374 -2.0107 -3.4275
66 1 7.16299 -8.59745 -2.66689 -3.47101
67 1 11.136 -9.09473 -3.76502 -3.27322
68 1 13.2232 -7.52344 -3.82162 -3.141
69 1 11.7508 -8.40365 0.857345 -3.22588
70 1 11.2425 -7.39765 -1.76365 -3.42464
71 1 13.5033 -8.00784 -1.38328 -2.70451
72 1 13.5604 -6.71823 0.910755 -3.09197
73 1 -16.4699 -4.66147 -4.11343 -2.74546
74 1 -16.1289 -5.78071 -1.89398 -2.92618
75 1 -14.18 -5.43677 -3.65458 -3.43807
76 1 -12.5066 -3.77766 -3.30951 -3.48105
77 1 -12.6844 -5.82822 -1.68245 -3.51622
78 1 -14.3651 -4.00854 -1.46565 -3.47501
79 1 -10.8036 -5.66841 -3.42703 -3.49227
80 1 -8.99178 -5.53268 46.717 -3.51356
81 1 -8.98521 -5.86946 -1.29532 -3.47663
82 1 -10.7373 -4.13099 -1.35753 -3.51403
83 1 -7.04918 -7.39247 46.4895 -3.47968
84 1 -5.37514 -5.5272 46.7591 -3.48408
85 1 -5.35574 -7.46451 -3.39487 -3.44408
86 1 -7.10793 -5.70237 -3.29979 -3.51952
87 1 -3.75462 -7.37788 46.6573 -3.48733
88 1 -2.03218 -5.42072 46.894 -3.50797
89 1 -2.00183 -7.49679 -3.37724 -3.52954
90 1 -3.73552 -5.6666 -3.16472 -3.51419
91 1 -0.37676 -7.27551 46.6893 -3.47884
92 1 1.41064 -5.69242 46.8439 -3.46837
93 1 1.14471 -7.69913 -3.14772 -3.49653
94 1 -0.267459 -5.65464 -3.13159 -3.49477
95 1 3.00595 -7.63674 46.7962 -3.45181
96 1 4.79215 -5.79369 47.0079 -3.5073
97 1 4.65001 -8.02782 -3.11284 -3.49686
98 1 2.98104 -6.10259 -3.08072 -3.50385
99 1 6.52613 -7.68102 46.8147 -3.50581
100 1 8.31668 -5.86969 47.1176 -3.49012
101 1 8.92437 -6.72468 -2.20684 -3.48002
102 1 6.50345 -6.21194 -3.0164 -3.4984
103 1 10.6738 -6.66426 -4.1549 -3.45321
104 1 12.3465 -5.08731 -3.93327 -3.47364
105 1 13.1158 -5.55088 -1.5456 -3.28904
106 1 10.6681 -5.00745 -2.02517 -3.49523
107 1 14.9099 -5.64009 -3.29464 -3.07819
108 1 16.5668 -3.56711 -3.34084 -2.7547
109 1 15.5341 -4.90541 0.99412 -2.66959
110 1 14.8898 -4.12323 -1.27516 -3.1642
111 1 -15.6101 -0.634608 47.8681 -3.13079
112 1 -16.5862 -3.24062 -2.06382 -2.83563
113 1 -14.7633 -2.94519 -3.78314 -3.31497
114 1 -13.1456 -2.96647 46.187 -3.47923
115 1 -12.4745 -2.31968 -1.31527 -3.5296
116 1 -15.0369 -1.54257 -1.65062 -3.34214
117 1 -10.6298 -3.637 46.9342 -3.46847
118 1 -8.81097 -1.96954 46.9984 -3.50441
119 1 -8.9442 -3.84065 -2.98966 -3.49366
120 1 -10.6605 -1.98721 -3.01435 -3.50823
121 1 -7.03804 -3.76631 46.8882 -3.49809
122 1 -5.3997 -1.86447 47.0973 -3.50926
123 1 -5.48254 -3.86645 -2.98048 -3.51448
124 1 -7.12875 -2.07382 -2.8458 -3.50626
125 1 -3.70613 -3.6696 46.9357 -3.49304
126 1 -1.86278 -2.04663 47.3815 -3.43733
127 1 -1.94542 -3.92675 -2.92951 -3.45546
128 1 -3.63677 -2.22299 -2.87762 -3.46687
129 1 -0.135518 -3.88088 46.9986 -3.5057
130 1 1.58786 -2.09296 47.2126 -3.48593
131 1 1.55012 -4.09711 -2.91087 -3.49896
132 1 -0.186246 -2.22832 -2.68617 -3.52426
133 1 3.15262 -3.87284 47.1126 -3.48109
134 1 4.93541 -2.06161 47.3176 -3.47236
135 1 4.77218 -4.19475 -2.91432 -3.48358
136 1 3.24468 -2.23052 -2.67292 -3.50861
137 1 6.59926 -4.08692 47.2675 -3.51415
138 1 8.4579 -2.40017 47.5344 -3.48497
139 1 8.20091 -4.45259 -2.66927 -3.48736
140 1 6.55936 -2.54381 -2.48658 -3.52627
141 1 10.0422 -4.29137 47.5295 -3.47027
142 1 12.0092 -2.5262 -4.31592 -3.49182
143 1 12.5769 -3.25045 -1.80836 -3.4561
144 1 10.0078 -2.58621 -2.40464 -3.50499
145 1 14.248 -3.27332 -3.63341 -3.47973
146 1 16.0674 -1.31225 -3.5082 -3.09757
147 1 16.535 -2.17418 -1.25478 -2.84677
148 1 14.2769 -1.45013 -1.55197 -3.48714
149 1 -16.9822 1.36315 40.099 -2.68374
150 1 -16.1223 0.172196 45.2451 -2.91872
151 1 -15.737 0.919414 -1.91571 -3.19124
152 1 -13.703 -0.539607 45.9924 -3.47771
153 1 -11.8143 1.00176 46.0342 -3.49264
154 1 -13.1143 -1.27079 -3.52706 -3.44545
155 1 -13.7445 0.99202 -3.88279 -3.45568
156 1 -11.2304 -1.32516 46.5235 -3.46497
157 1 -9.40009 0.407851 46.6294 -3.47463
158 1 -8.89766 -0.255617 -2.63883 -3.45319
159 1 -11.3169 0.426861 -3.29045 -3.49803
160 1 -7.10043 -0.118872 47.3225 -3.49495
161 1 -5.21928 1.5915 47.4571 -3.47063
162 1 -5.3058 -0.400916 -2.68528 -3.52734
163 1 -6.96819 1.60406 -2.46033 -3.52852
164 1 -3.5062 -0.231393 47.3278 -3.51423
165 1 -1.66351 1.59012 47.5189 -3.49477
166 1 -1.95804 -0.32999 -2.66094 -3.46857
167 1 -3.52471 1.541 -2.53463 -3.47895
168 1 -0.0890919 -0.37375 47.4042 -3.48435
169 1 1.62778 1.41791 47.6229 -3.47451
170 1 1.53474 -0.511231 -2.43378 -3.49342
171 1 -0.175919 1.29678 -2.42837 -3.48373
172 1 3.35473 -0.25182 47.6525 -3.46236
173 1 5.12792 1.50545 -4.06624 -3.48763
174 1 5.00653 -0.509982 -2.36057 -3.50448
175 1 3.32194 1.32531 -2.26681 -3.51758
176 1 6.79651 -0.490539 -4.14811 -3.51877
177 1 8.69725 1.22592 -3.9785 -3.51995
178 1 8.45754 -0.690482 -2.29466 -3.50423
179 1 6.80819 1.18532 -2.20791 -3.50065
180 1 10.2044 -0.790524 -4.21108 -3.49317
181 1 12.1631 1.07931 -4.04057 -3.52325
182 1 11.9214 -0.938551 -2.22779 -3.51935
183 1 10.3635 1.04965 -2.11166 -3.50964
184 1 13.6543 -0.772345 -4.14203 -3.36356
185 1 15.35 1.02451 -3.8864 -3.33197
186 1 16.1614 0.34933 -1.55676 -3.13298
187 1 13.6938 0.872756 -1.96697 -3.49744
188 1 17.0825 1.2462 46.2818 -2.70982
189 1 -14.7271 4.15821 45.1387 -3.0148
190 1 -16.0065 1.84623 47.3517 -2.82466
191 1 -14.1687 1.81606 45.5371 -3.32111
192 1 -12.3504 3.57196 45.6174 -3.50411
193 1 -11.8373 2.80738 -3.68764 -3.43145
194 1 -14.1552 3.44833 -4.19754 -3.28657
195 1 -10.0421 2.82442 46.3953 -3.51414
196 1 -8.27399 4.60507 46.5639 -3.49756
197 1 -9.4101 1.97477 -2.9699 -3.46017
198 1 -10.1701 4.41158 -3.38295 -3.45958
199 1 -7.62849 2.31567 47.0444 -3.46972
200 1 -5.81889 3.91323 47.1164 -3.47531
201 1 -5.13447 3.34458 -2.2011 -3.43141
202 1 -7.66116 3.93561 -2.90229 -3.48662
203 1 -3.50434 3.27808 -4.31043 -3.46094
204 1 -1.60469 5.18733 -3.91061 -3.50217
205 1 -1.82448 3.31105 -2.22422 -3.51508
206 1 -3.56975 5.03847 -2.10571 -3.42103
207 1 0.122763 3.24218 -4.07187 -3.49389
208 1 1.91042 5.16014 -3.81229 -3.49456
209 1 1.52228 2.9889 -1.90731 -3.44299
210 1 -0.0461293 4.93885 -2.01047 -3.47756
211 1 3.39626 3.21993 -3.94229 -3.48544
212 1 5.21712 4.91543 -3.66236 -3.53506
213 1 5.1058 3.03943 -2.01922 -3.48138
214 1 3.40425 4.68395 -1.7844 -3.47124
215 1 7.00123 3.11876 -3.93837 -3.51265
216 1 8.81388 4.85791 -3.65357 -3.49753
217 1 8.59964 2.81397 -1.95242 -3.48825
218 1 7.01214 4.62418 -1.77602 -3.48734
219 1 10.5766 3.05161 -3.73104 -3.51051
220 1 12.2376 4.83858 -3.479 -3.47072
221 1 12.1297 2.76513 -1.88804 -3.46347
222 1 10.3842 4.63356 -1.59671 -3.45827
223 1 13.7544 3.04224 -3.67199 -3.45213
224 1 15.571 4.52196 -3.48068 -3.0722
225 1 15.3709 2.65274 -1.84896 -3.2757
226 1 13.7545 4.6199 -1.50742 -3.40753
227 1 -14.5711 5.7633 47.2132 -2.88049
228 1 -12.8536 6.004 45.4121 -3.38939
229 1 -11.2703 7.84393 45.6724 -3.42438
230 1 -12.3396 5.18245 -4.06881 -3.39205
231 1 -13.0243 7.59315 47.5749 -3.14014
232 1 -10.5597 5.30152 45.986 -3.51974
233 1 -8.89513 7.11554 46.1783 -3.47932
234 1 -8.45836 6.36456 -3.34981 -3.45089
235 1 -10.6862 6.91664 -3.76041 -3.45599
236 1 -6.43287 6.30592 46.9014 -3.52238
237 1 -4.76499 8.22123 47.0939 -3.48383
238 1 -6.04221 5.60095 -2.59978 -3.46891
239 1 -6.55816 8.19354 -2.94367 -3.52916
240 1 -4.03652 5.82621 47.5078 -3.49792
241 1 -2.28831 7.63009 -4.17265 -3.46677
242 1 -1.80002 6.75823 -1.85455 -3.48928
243 1 -4.18481 7.48435 -2.36486 -3.50448
244 1 0.170127 6.97842 -3.77636 -3.4952
245 1 1.91476 8.74254 -3.4095 -3.42828
246 1 1.94387 6.80574 -1.79153 -3.51671
247 1 0.157812 8.61693 -1.77055 -3.47518
248 1 3.65523 6.97794 -3.60925 -3.46387
249 1 5.40426 8.71756 -3.40019 -3.45512
250 1 5.19196 6.53221 -1.63269 -3.51762
251 1 3.7315 8.56011 -1.40656 -3.48123
252 1 7.16927 6.76135 -3.44096 -3.44348
253 1 8.76991 8.44054 -3.24426 -3.47209
254 1 8.74004 6.48316 -1.65254 -3.47879
255 1 6.89979 8.21883 -1.35358 -3.50036
256 1 10.4214 6.6392 -3.56333 -3.44896
257 1 12.1586 8.23088 -3.1579 -3.44854
258 1 12.0312 6.26392 -1.32154 -3.46556
259 1 10.3779 8.30366 -1.19747 -3.47774
260 1 13.9848 6.47464 -3.23981 -3.36066
261 1 15.6871 5.83531 -1.46871 -2.70231
262 1 14.0803 7.7385 -1.10353 -3.09155
263 1 -13.4795 8.39562 45.209 -2.85924
264 1 -11.6412 10.2716 45.0775 -2.8566
265 1 -11.172 9.49703 47.5533 -3.25011
266 1 -9.34859 9.51905 45.7246 -3.44104
267 1 -7.38518 11.2997 45.8575 -3.31059
268 1 -8.91669 8.72703 -3.53363 -3.48314
269 1 -9.30314 11.1595 -4.02159 -3.20609
270 1 -7.13593 8.92213 46.5056 -3.50168
271 1 -5.16768 10.6325 46.7433 -3.40697
272 1 -4.66736 9.94701 -2.76636 -3.51714
273 1 -7.10702 10.606 -3.32199 -3.46993
274 1 -2.93208 10.0733 47.1879 -3.47159
275 1 -1.01679 11.7233 47.3636 -3.48806
276 1 -2.21992 9.07931 -2.20491 -3.45728
277 1 -2.80165 11.6473 -2.60771 -3.48031
278 1 -0.523302 9.41406 -4.07985 -3.45886
279 1 1.3133 11.004 -3.855 -3.4595
280 1 2.04186 10.2519 -1.38545 -3.47232
281 1 -0.65927 10.9312 -2.03701 -3.42811
282 1 3.62679 10.4824 -3.38848 -3.47922
283 1 5.5069 12.3133 -3.00536 -3.52211
284 1 5.39961 10.297 -1.31796 -3.4847
285 1 3.6973 12.0754 -1.15842 -3.50474
286 1 7.07733 10.4006 -3.05703 -3.44069
287 1 8.87098 12.1168 -2.95744 -3.35316
288 1 8.61526 10.3081 -1.25151 -3.49073
289 1 6.95783 12.2088 -0.949718 -3.42378
290 1 10.549 10.2037 -3.1328 -3.44926
291 1 12.549 11.6288 -2.73669 -2.83018
292 1 12.475 9.75565 -0.981258 -3.31687
293 1 10.6877 11.5637 -1.02394 -3.34144
294 1 14.146 9.58868 -2.92999 -2.70096
295 1 -9.66049 11.928 45.447 -2.75476
296 1 -7.42433 13.0074 -3.8956 -2.94178
297 1 -5.68376 12.9269 46.0451 -3.19976
298 1 -3.9656 14.7202 46.2461 -2.84727
299 1 -5.14817 12.2372 -3.36104 -3.38591
300 1 -5.68614 14.4835 -3.75277 -2.64711
301 1 -3.36116 12.4572 46.6229 -3.46985
302 1 -1.50646 14.0962 46.866 -3.24831
303 1 -1.02557 13.3952 -2.47761 -3.36644
304 1 -3.30929 14.0927 -3.16676 -3.12777
305 1 0.829899 13.4543 47.6346 -3.46651
306 1 2.5184 15.3007 -4.20968 -3.09875
307 1 1.33731 12.6003 -1.83124 -3.52779
308 1 0.672228 15.0861 -2.41628 -2.97066
309 1 3.13746 12.9105 -3.70293 -3.4916
310 1 5.05 14.6537 -3.52819 -3.10821
311 1 5.41874 14.0722 -1.02676 -3.26064
312 1 3.03828 14.4691 -1.80679 -3.13185
313 1 7.38903 14.041 -2.85937 -3.19563
314 1 8.94415 13.461 -0.96075 -3.12088
315 1 7.41518 15.4293 -0.36462 -2.47266
316 1 10.808 13.3731 -2.6422 -2.75218
317 1 0.0746962 15.8358 47.1886 -2.67387
318 1 -6.19045 -15.3341 -0.172575 -2.75076
319 1 -8.1169 -15.1835 1.52144 -2.49549
320 1 -1.9411 -14.372 0.469631 -2.96541
321 1 -3.80441 -14.3289 2.48 -2.80286
322 1 2.15614 -14.6177 -0.86818 -2.98012
323 1 4.42613 -15.2019 -0.256935 -2.46894
324 1 0.487384 -14.8846 0.97862 -2.65987
325 1 4.4277 -13.7192 1.92133 -2.95728
326 1 2.54946 -13.773 3.79542 -2.86596
327 1 6.84303 -12.8099 4.74328 -2.74837
328 1 -12.8528 -11.1012 -0.00385799 -2.81172
329 1 -11.115 -12.6906 -0.203341 -2.69897
330 1 -9.2381 -11.3266 0.239503 -3.38992
331 1 -9.68228 -13.234 1.89324 -3.0756
332 1 -11.2166 -11.471 2.02209 -3.28007
333 1 -7.76936 -13.3972 -0.116029 -3.31469
334 1 -5.92306 -11.5476 0.0081196 -3.47827
335 1 -6.203 -13.83 1.93535 -3.27541
336 1 -7.69629 -11.8087 1.95635 -3.43842
337 1 -4.36557 -13.5043 0.128627 -3.33477
338 1 -2.59033 -11.771 0.15813 -3.48226
339 1 -2.11221 -12.6983 2.58666 -3.27965
340 1 -4.29514 -11.9142 2.17269 -3.41674
341 1 -0.249909 -12.4798 0.824008 -3.45154
342 1 1.59889 -12.2928 -1.26906 -3.49022
343 1 2.2124 -13.058 1.15147 -3.36423
344 1 -0.242221 -10.7189 2.97415 -3.45149
345 1 4.01802 -12.864 -0.659439 -3.38268
346 1 5.6328 -11.2075 -0.414413 -3.39152
347 1 4.45528 -12.1087 4.05816 -3.36375
348 1 4.18295 -11.3744 1.60644 -3.46428
349 1 6.48843 -12.0864 2.28151 -3.19267
350 1 8.26003 -10.2123 2.44021 -3.29813
351 1 8.74803 -11.1369 4.8455 -3.13705
352 1 6.43429 -10.3626 4.3285 -3.45572
353 1 10.4533 -10.7387 2.91048 -2.70767
354 1 12.285 -9.08002 3.25378 -2.87103
355 1 10.5976 -9.51438 5.01791 -3.2311
356 1 -14.24 -9.03385 0.249403 -2.81006
357 1 -12.4604 -7.47751 0.299405 -3.36475
358 1 -12.8536 -9.60679 2.29042 -3.30445
359 1 -14.5385 -7.67098 2.35407 -3.09968
360 1 -10.9924 -9.43989 0.269119 -3.53204
361 1 -9.16354 -7.69094 0.312877 -3.51565
362 1 -9.38133 -9.73974 2.25774 -3.49914
363 1 -10.9849 -7.9056 2.27898 -3.50654
364 1 -7.53941 -9.67164 0.320085 -3.483
365 1 -5.69695 -7.9211 0.511925 -3.4571
366 1 -5.9869 -10.0746 2.26461 -3.4932
367 1 -7.51716 -8.03628 2.35031 -3.53083
368 1 -4.04539 -9.68678 0.273182 -3.45136
369 1 -2.23508 -9.58938 -1.4246 -3.49728
370 1 -2.63286 -10.1372 2.21566 -3.50181
371 1 -4.20031 -8.08906 2.45394 -3.46771
372 1 -0.763139 -11.656 -1.72854 -3.48014
373 1 0.984689 -9.83931 -1.44007 -3.50407
374 1 1.78143 -10.5538 0.961651 -3.48977
375 1 -0.556522 -9.88818 0.537685 -3.46777
376 1 3.46039 -10.4264 -1.04583 -3.47099
377 1 5.28865 -8.66493 -0.703652 -3.50135
378 1 5.94319 -9.61138 1.77205 -3.51088
379 1 3.58098 -8.89196 1.1537 -3.4805
380 1 7.62087 -9.40276 -0.163007 -3.47986
381 1 9.47778 -7.65918 0.0391983 -3.52825
382 1 8.23228 -8.6311 4.38272 -3.50932
383 1 7.64175 -7.74142 1.83236 -3.5012
384 1 9.94665 -8.44159 2.64457 -3.40977
385 1 11.7803 -6.71812 2.86646 -3.47307
386 1 12.3803 -7.58282 5.27456 -3.22556
387 1 10.1062 -6.96664 4.72876 -3.47743
388 1 14.2764 -7.26265 3.43489 -2.64935
389 1 14.1465 -5.74498 5.47375 -2.95345
390 1 -16.0466 -4.30978 0.273465 -3.04742
391 1 -16.0524 -5.66487 2.50636 -2.7214
392 1 -14.4112 -6.01972 0.310926 -3.33857
393 1 -12.6232 -4.29714 0.393448 -3.52592
394 1 -12.7808 -6.00695 2.34215 -3.49866
395 1 -14.3471 -4.19349 2.37438 -3.37065
396 1 -10.7862 -5.90354 0.619256 -3.40844
397 1 -8.90118 -4.28959 0.644851 -3.47357
398 1 -9.07622 -6.09066 2.38292 -3.50164
399 1 -10.7265 -4.24062 2.50004 -3.46152
400 1 -7.22507 -5.95431 0.65198 -3.44144
401 1 -5.52754 -5.8474 -1.2379 -3.47802
402 1 -5.64678 -6.19751 2.46388 -3.46081
403 1 -7.32682 -4.32507 2.58423 -3.49259
404 1 -3.89242 -7.745 -1.37775 -3.51482
405 1 -2.0286 -6.01623 -1.21135 -3.49413
406 1 -2.28503 -8.01286 0.667936 -3.47911
407 1 -3.96518 -6.31264 0.586376 -3.46062
408 1 -0.523273 -7.80965 -1.35603 -3.42218
409 1 1.2201 -6.20149 -1.05598 -3.49231
410 1 1.08169 -8.10746 0.800566 -3.45005
411 1 -0.479025 -6.3192 0.664929 -3.42861
412 1 2.87772 -8.04159 -1.24799 -3.52533
413 1 4.76842 -6.28122 -1.18727 -3.46805
414 1 5.2812 -7.23087 1.3957 -3.47697
415 1 3.01052 -6.41051 0.853192 -3.51146
416 1 7.05294 -6.99041 -0.581063 -3.50674
417 1 8.93077 -5.1079 -0.0937333 -3.47238
418 1 9.49419 -6.03984 2.13058 -3.50112
419 1 7.11873 -5.30793 1.45164 -3.46585
420 1 11.362 -5.96497 0.432672 -3.50496
421 1 13.1866 -4.01701 0.493766 -3.44328
422 1 12.0691 -5.17027 4.81114 -3.40907
423 1 11.385 -4.2876 2.37358 -3.51792
424 1 13.754 -5.02547 2.74091 -3.29027
425 1 15.3917 -3.38304 3.20681 -2.97429
426 1 15.9021 -3.87075 5.73226 -2.6811
427 1 13.6194 -3.35436 5.09288 -3.42317
428 1 -16.757 -1.87754 0.186955 -2.92876
429 1 -16.2781 -2.55177 2.59864 -3.0759
430 1 -14.2811 -2.33403 0.717677 -3.51321
431 1 -12.4448 -0.567996 0.880943 -3.49551
432 1 -12.438 -2.57624 2.49038 -3.44478
433 1 -14.2144 -0.761275 2.72101 -3.5109
434 1 -10.7909 -2.47546 0.816024 -3.48705
435 1 -9.03051 -2.28224 -1.03412 -3.51166
436 1 -9.00284 -2.56023 2.67821 -3.50178
437 1 -10.7293 -0.761837 2.83159 -3.48325
438 1 -7.30387 -4.03946 -1.18175 -3.49226
439 1 -5.3157 -2.25032 -0.853005 -3.49555
440 1 -5.51656 -4.29026 0.711182 -3.48032
441 1 -7.11674 -2.39813 0.836815 -3.52351
442 1 -3.76046 -4.28141 -1.11228 -3.46679
443 1 -2.04982 -2.45041 -0.924105 -3.51921
444 1 -2.16785 -4.4611 0.776628 -3.55281
445 1 -3.87585 -2.57257 0.977781 -3.43226
446 1 -0.253443 -4.18969 -1.06024 -3.49213
447 1 1.61631 -2.75137 -0.818395 -3.41662
448 1 1.21724 -4.62995 1.00514 -3.47688
449 1 -0.251242 -2.78637 1.11317 -3.48295
450 1 3.26457 -4.45495 -1.0726 -3.3923
451 1 4.7486 -2.67339 -0.630669 -3.48344
452 1 4.70523 -4.72434 1.1328 -3.48219
453 1 2.97665 -2.81846 1.15287 -3.49183
454 1 6.56204 -4.32931 -0.790299 -3.49327
455 1 8.37289 -2.69762 -0.537745 -3.48763
456 1 8.92831 -3.53971 1.88948 -3.51682
457 1 6.4285 -2.93556 1.45056 -3.49412
458 1 10.7264 -3.50117 -0.0504984 -3.51124
459 1 12.4547 -1.70684 0.188254 -3.49717
460 1 13.0408 -2.50548 2.56772 -3.48828
461 1 10.6329 -1.85465 1.99886 -3.51986
462 1 14.9318 -2.40174 0.737799 -3.34149
463 1 16.5181 -0.545885 0.864132 -2.83159
464 1 15.4962 -1.52697 5.04002 -3.07492
465 1 14.7636 -0.834524 2.79758 -3.3328
466 1 -17.1528 0.715535 0.0927307 -2.69144
467 1 -15.3493 2.49681 0.145977 -3.28347
468 1 -16.5584 -0.0159593 2.32694 -3.07735
469 1 -14.8407 0.0594995 0.324066 -3.40664
470 1 -13.2729 0.171618 -1.44399 -3.49093
471 1 -12.3148 1.02988 2.97183 -3.48885
472 1 -14.724 1.70769 2.54656 -3.42747
473 1 -10.7132 -0.420451 -0.821539 -3.52222
474 1 -8.76669 1.32851 -0.590992 -3.48753
475 1 -8.83327 -0.711965 1.02144 -3.49246
476 1 -10.603 1.08307 1.2064 -3.47173
477 1 -7.25718 -0.469674 -0.836734 -3.44396
478 1 -5.46581 1.20109 -0.49749 -3.49568
479 1 -5.31614 -0.696279 1.37459 -3.45443
480 1 -7.10569 1.05276 1.28652 -3.50643
481 1 -3.54725 -0.543733 -0.690801 -3.42174
482 1 -1.96653 1.11071 -0.599676 -3.43846
483 1 -1.92372 -0.987284 1.37876 -3.51545
484 1 -3.57064 1.06545 1.48608 -3.50853
485 1 -0.113221 -0.795817 -0.467113 -3.52094
486 1 1.43823 1.05169 -0.487051 -3.46028
487 1 1.41459 -0.93029 1.52379 -3.49207
488 1 -0.316427 1.03605 1.43067 -3.50289
489 1 3.05801 -0.81728 -0.44187 -3.50474
490 1 4.85829 0.951531 -0.283941 -3.50344
491 1 4.81736 -1.06734 1.33901 -3.51329
492 1 3.21155 0.857631 1.51335 -3.51518
493 1 6.61375 -1.01318 -0.458793 -3.49339
494 1 8.42934 0.675266 -0.267485 -3.49273
495 1 8.16672 -1.15247 1.48202 -3.47338
496 1 6.63095 0.622527 1.45849 -3.4496
497 1 10.1228 -1.04432 -0.404543 -3.4685
498 1 11.8971 0.674487 -0.159721 -3.50442
499 1 12.5024 -0.0630662 2.26832 -3.51875
500 1 10.0587 0.628568 1.80651 -3.53943
501 1 14.2415 0.0762767 0.451349 -3.4938
502 1 16.1796 1.79171 0.54539 -3.0386
503 1 16.5172 0.918058 2.82337 -2.79857
504 1 14.309 1.70266 2.41962 -3.4802
505 1 17.0624 2.68643 -3.63839 -2.58717
506 1 -15.9483 3.4988 -2.5879 -2.77566
507 1 -15.1611 3.98326 2.0684 -3.10498
508 1 -13.6194 2.65979 -1.86474 -3.53199
509 1 -11.7779 4.47333 -1.48436 -3.50808
510 1 -13.1505 1.91709 0.634215 -3.47325
511 1 -13.4822 4.30384 0.181615 -3.3838
512 1 -11.3391 1.93957 -1.29876 -3.53287
513 1 -9.39328 3.70915 -0.942711 -3.51306
514 1 -8.90942 2.8131 1.39539 -3.45423
515 1 -11.2496 3.51191 0.813984 -3.50088
516 1 -6.98381 3.09258 -0.341743 -3.52394
517 1 -5.18686 4.82744 -0.22046 -3.4918
518 1 -5.36998 2.90576 1.57788 -3.50659
519 1 -7.05342 4.8056 1.55943 -3.51111
520 1 -3.61955 3.02408 -0.228939 -3.48858
521 1 -1.9374 4.82536 -0.0241041 -3.53134
522 1 -1.89853 2.82464 1.64774 -3.44348
523 1 -3.52928 4.50617 1.95738 -3.43632
524 1 -0.213008 2.9045 -0.234252 -3.48832
525 1 1.58437 4.75911 -0.0759793 -3.49448
526 1 1.4971 2.76918 1.58638 -3.50481
527 1 -0.112333 4.65079 1.94984 -3.52273
528 1 3.345 2.8604 -0.128073 -3.49941
529 1 5.12578 4.5466 0.13198 -3.49443
530 1 5.06795 2.57199 1.7902 -3.53715
531 1 3.27576 4.34418 1.91074 -3.50536
532 1 6.75162 2.78761 -0.131756 -3.49302
533 1 8.61939 4.39781 -0.00407935 -3.42621
534 1 8.30165 2.47527 1.79448 -3.4521
535 1 6.82393 4.38636 1.93313 -3.45931
536 1 10.3244 2.6206 -0.0406143 -3.53376
537 1 12.0651 4.39142 0.422845 -3.50765
538 1 11.9129 2.40582 1.995 -3.50932
539 1 10.049 4.00055 2.14131 -3.48706
540 1 13.6325 2.56174 0.0468529 -3.50326
541 1 15.4257 4.2263 0.420599 -3.12484
542 1 16.1584 3.40104 2.95062 -3.06003
543 1 13.7741 4.11094 2.38059 -3.45379
544 1 -15.6929 4.88188 -0.317521 -2.70768
545 1 -14.2586 5.09172 -2.24999 -3.18584
546 1 -12.2702 6.9912 -1.6993 -3.28547
547 1 -11.7456 6.056 0.578064 -3.44403
548 1 -14.0205 6.75767 -0.119018 -3.00411
549 1 -9.93037 6.24893 -1.33852 -3.43036
550 1 -8.34882 8.01517 -1.04737 -3.47222
551 1 -9.49374 5.3584 1.23333 -3.51238
552 1 -10.0486 7.75089 0.828881 -3.49969
553 1 -7.80468 5.5294 -0.782758 -3.43176
554 1 -6.02474 7.2415 -0.606027 -3.48592
555 1 -5.18396 6.37414 1.9597 -3.5156
556 1 -7.69624 7.12858 1.43286 -3.47558
557 1 -3.50688 6.74372 0.0789913 -3.40839
558 1 -1.67492 8.37949 0.2694 -3.50788
559 1 -1.84277 6.37117 2.11043 -3.50097
560 1 -3.37773 8.28141 2.34318 -3.4782
561 1 -0.0267682 6.48145 0.118446 -3.47348
562 1 1.81571 8.19344 0.376527 -3.51506
563 1 1.74777 6.28242 2.09018 -3.4914
564 1 -0.0221503 8.02474 2.23771 -3.51133
565 1 3.46734 6.41796 0.25086 -3.51305
566 1 5.30675 8.26499 0.483438 -3.4715
567 1 5.15419 6.12182 2.21318 -3.50815
568 1 3.60307 8.12482 2.25754 -3.51021
569 1 6.94487 6.32655 0.374583 -3.53607
570 1 8.77118 8.25348 0.5251 -3.47649
571 1 8.54317 6.00366 2.32648 -3.42474
572 1 6.90034 7.93345 2.37876 -3.5294
573 1 10.2827 6.08177 0.49374 -3.49829
574 1 12.1013 7.84528 0.798886 -3.49421
575 1 12.0413 5.84887 2.39946 -3.49518
576 1 10.1942 7.64676 2.48194 -3.46021
577 1 13.9655 6.16118 0.62302 -3.31797
578 1 15.6721 5.71438 2.40964 -2.8383
579 1 14.1807 7.65727 2.61651 -3.06401
580 1 -13.018 9.31221 -2.34493 -2.6388
581 1 -11.1478 10.9787 -2.05959 -2.81596
582 1 -12.5557 8.67456 0.21427 -3.19737
583 1 -10.6722 8.69588 -1.71581 -3.37855
584 1 -8.72703 10.4215 -1.4101 -3.42369
585 1 -8.16382 9.54627 0.990892 -3.50121
586 1 -10.5387 10.2429 0.267198 -3.26687
587 1 -6.43897 9.67058 -0.709028 -3.47362
588 1 -4.52283 11.4588 -0.656972 -3.48372
589 1 -5.71983 8.99978 1.66327 -3.49094
590 1 -6.31001 11.3065 1.17918 -3.4271
591 1 -4.13 8.87514 -0.345077 -3.40453
592 1 -2.20516 10.8675 -0.175472 -3.4377
593 1 -1.70495 9.97613 2.47277 -3.4458
594 1 -3.90589 10.7141 1.63035 -3.46014
595 1 0.0377852 10.1751 0.41037 -3.48686
596 1 1.71722 11.9295 0.602244 -3.49891
597 1 1.74503 9.80766 2.39218 -3.49088
598 1 0.200679 11.6341 2.62816 -3.47825
599 1 3.61225 10.2171 0.544486 -3.52472
600 1 5.38608 11.9915 0.829233 -3.4397
601 1 5.30724 9.92293 2.58152 -3.49969
602 1 3.55407 11.647 2.57696 -3.47426
603 1 6.98244 10.1069 0.65666 -3.50703
604 1 8.985 11.5775 1.02919 -3.33739
605 1 8.68938 9.7244 2.67715 -3.54375
606 1 6.99185 11.6685 2.81598 -3.50035
607 1 10.6562 9.79875 0.829492 -3.42679
608 1 12.4962 11.4392 1.03172 -2.79291
609 1 12.186 9.45548 2.77469 -3.3456
610 1 10.6432 11.4616 2.81814 -3.30182
611 1 14.0903 9.48626 0.993049 -2.6946
612 1 -9.1936 12.7109 -1.95039 -2.68979
613 1 -8.70943 12.0478 0.594027 -3.08846
614 1 -6.79821 12.1237 -1.34464 -3.32557
615 1 -5.1996 13.7923 -1.32278 -2.95987
616 1 -4.46203 13.1682 1.36611 -3.32465
617 1 -6.79467 13.6085 0.727309 -2.73182
618 1 -2.77169 13.4586 -0.694246 -3.28355
619 1 -0.984422 15.0575 -0.412151 -2.81105
620 1 -2.07977 12.3588 2.07212 -3.45252
621 1 -2.62863 14.7888 1.63884 -2.85621
622 1 -0.577088 12.6817 0.0349928 -3.44381
623 1 1.25268 14.392 0.170105 -3.18843
624 1 2.05105 13.4401 2.74971 -3.45596
625 1 -0.319975 14.1368 2.05008 -3.3231
626 1 3.7153 13.6205 0.75557 -3.31449
627 1 5.44828 15.2054 1.06935 -2.83256
628 1 5.28724 13.3795 2.93565 -3.43816
629 1 3.84968 15.3107 3.02112 -2.97571
630 1 7.28406 13.6292 1.11439 -3.31148
631 1 8.86419 13.288 2.98375 -3.10616
632 1 6.95028 15.0699 3.33501 -2.72795
633 1 10.4202 13.2649 0.99839 -2.68183
634 1 1.47814 15.7664 2.34959 -2.6981
635 1 -5.81929 -14.4994 4.42223 -2.78749
636 1 -7.34678 -14.5897 6.22107 -2.59111
637 1 -1.6164 -13.4002 5.12768 -3.10783
638 1 -3.26852 -13.5802 7.21962 -3.09994
639 1 0.223871 -13.2303 3.09989 -3.19933
640 1 0.833453 -14.0841 5.71412 -2.80379
641 1 -0.793015 -14.2121 7.53086 -2.91182
642 1 4.97391 -13.244 6.31031 -2.91856
643 1 3.21055 -13.0679 8.25027 -3.15453
644 1 5.79434 -13.5086 8.71915 -2.63143
645 1 -12.8304 -11.6235 4.0681 -2.84412
646 1 -10.9864 -13.4197 4.17134 -2.70624
647 1 -9.42409 -11.5036 3.92715 -3.46973
648 1 -9.49816 -13.7361 5.91211 -2.83428
649 1 -11.3182 -11.451 5.97607 -3.31123
650 1 -8.04788 -13.7599 3.8069 -3.22304
651 1 -6.33083 -12.0287 3.98959 -3.46816
652 1 -5.57459 -12.9761 6.64508 -3.30405
653 1 -7.92575 -11.9492 5.98128 -3.46286
654 1 -3.96144 -12.7323 4.6312 -3.32471
655 1 -1.991 -11.0156 4.63005 -3.46127
656 1 -1.34965 -11.6876 7.09224 -3.48211
657 1 -3.82939 -11.1211 6.74004 -3.46998
658 1 0.379808 -11.6073 5.24507 -3.49724
659 1 2.14445 -11.5011 3.294 -3.44783
660 1 0.849717 -12.3869 7.73472 -3.3693
661 1 0.505529 -9.95345 7.35615 -3.51313
662 1 2.62568 -12.3947 5.902 -3.31735
663 1 4.6095 -10.7243 6.08836 -3.49424
664 1 5.15348 -11.4189 8.65836 -3.25921
665 1 2.85681 -10.6384 7.99299 -3.4875
666 1 6.83122 -11.3466 6.84498 -3.3665
667 1 8.71428 -9.62782 6.94486 -3.43906
668 1 7.73836 -12.2617 9.36807 -2.91468
669 1 7.07634 -9.80269 8.85581 -3.49462
670 1 9.14124 -11.9478 7.16038 -2.70555
671 1 11.0423 -10.2722 7.24544 -2.83703
672 1 9.36431 -10.3479 9.38219 -3.21189
673 1 -14.5033 -9.74868 4.11936 -2.71082
674 1 -12.7624 -7.84679 4.10688 -3.47708
675 1 -12.9408 -9.6123 5.91918 -3.32621
676 1 -14.6121 -7.80561 5.82737 -3.11955
677 1 -11.1536 -9.746 4.06953 -3.49861
678 1 -9.28465 -7.93116 4.06281 -3.42506
679 1 -9.34817 -9.87193 6.08696 -3.44016
680 1 -11.0088 -8.12049 6.03676 -3.4882
681 1 -7.60938 -9.91597 4.17667 -3.46723
682 1 -5.87559 -8.17918 4.24545 -3.46546
683 1 -6.1471 -10.2625 6.1623 -3.49823
684 1 -7.70123 -8.237 6.03848 -3.45036
685 1 -4.37065 -10.3527 4.37599 -3.4691
686 1 -2.39801 -8.54767 4.28751 -3.49837
687 1 -2.14561 -9.30649 6.8378 -3.51849
688 1 -4.43361 -8.35575 6.42152 -3.4255
689 1 -0.186099 -9.17156 5.04747 -3.46841
690 1 1.6705 -9.14439 3.07201 -3.49155
691 1 2.27036 -9.96071 5.53142 -3.51764
692 1 -0.204132 -7.6087 7.09458 -3.49793
693 1 4.01639 -9.61198 3.47323 -3.45579
694 1 5.79236 -8.00675 3.9606 -3.48116
695 1 4.66048 -8.98307 8.09425 -3.50679
696 1 4.02335 -8.21835 5.72638 -3.51629
697 1 6.39861 -8.8715 6.23201 -3.47815
698 1 8.28944 -7.14158 6.54019 -3.50889
699 1 8.79337 -8.0302 8.99011 -3.48073
700 1 6.43934 -7.25905 8.46287 -3.50451
701 1 10.5799 -7.76794 6.96451 -3.43691
702 1 12.4399 -6.12507 7.24091 -3.36233
703 1 11.2414 -8.63768 9.37759 -3.23037
704 1 10.5476 -6.20685 9.04822 -3.48001
705 1 12.8542 -8.46275 7.67884 -2.68354
706 1 13.0224 -6.89758 9.7656 -3.12065
707 1 -16.1203 -4.09093 4.46401 -2.99228
708 1 -16.3081 -5.79268 6.08901 -2.72972
709 1 -14.4408 -5.93153 4.24926 -3.33121
710 1 -12.524 -4.42121 4.33802 -3.50165
711 1 -12.6598 -6.29444 6.1075 -3.52554
712 1 -14.3615 -4.32944 6.33279 -3.47316
713 1 -10.8424 -6.15625 4.28115 -3.48934
714 1 -9.05242 -4.55014 4.51363 -3.50544
715 1 -9.28554 -6.31107 6.34401 -3.4933
716 1 -10.9136 -4.49301 6.347 -3.50134
717 1 -7.59904 -6.41635 4.506 -3.39547
718 1 -5.75393 -4.74348 4.61346 -3.53733
719 1 -5.88654 -6.485 6.49629 -3.46655
720 1 -7.5088 -4.71403 6.67182 -3.4771
721 1 -4.06698 -6.60605 4.52135 -3.47905
722 1 -2.20651 -6.47345 2.60981 -3.39708
723 1 -2.56595 -6.77517 6.46279 -3.47634
724 1 -4.06473 -4.91974 6.63996 -3.46181
725 1 -0.696346 -8.43847 2.46938 -3.43012
726 1 1.10982 -6.68076 2.70367 -3.50399
727 1 1.61983 -7.6022 5.20249 -3.49016
728 1 -0.583746 -6.77869 4.64361 -3.49349
729 1 3.46244 -7.31428 3.27267 -3.47986
730 1 5.20913 -5.5272 3.40066 -3.48398
731 1 5.95645 -6.33785 5.92278 -3.51952
732 1 3.57626 -5.69706 5.29225 -3.51037
733 1 7.66757 -6.16641 3.99656 -3.49999
734 1 9.59525 -4.63548 4.24214 -3.50888
735 1 8.35587 -5.64144 8.5314 -3.45146
736 1 7.83493 -4.66501 6.10028 -3.47222
737 1 10.0896 -5.33514 6.66578 -3.49379
738 1 11.9381 -3.63124 6.93877 -3.50162