ITEM: TIMESTEP
56000
ITEM: NUMBER OF ATOMS
3804
ITEM: BOX BOUNDS ss ss pp
-1.7736814720631191e+01 1.7788893397174895e+01
-1.7794219608055791e+01 1.7604570628867474e+01
-1.2146400000000002e+00 4.4594640000000005e+01
ITEM: ATOMS id type x y z c_peratom
1 1 -5.34135 -15.8341 44.6687 -2.98782
2 1 -6.9995 -16.0104 0.759546 -2.71639
3 1 -2.01543 -15.8873 44.5558 -3.11711
4 1 -3.77067 -15.8463 0.628773 -3.01037
5 1 -0.195649 -17.3673 44.5183 -2.39335
6 1 1.7579 -16.0119 -1.22283 -3.04984
7 1 -0.0251939 -15.9191 0.716466 -3.20105
8 1 5.25448 -15.7519 -1.18126 -2.97637
9 1 3.76497 -15.8627 0.852404 -3.0047
10 1 7.01903 -15.8094 0.727864 -2.68392
11 1 -12.5498 -12.25 -1.24391 -2.82925
12 1 -10.6863 -14.1853 44.4608 -2.68592
13 1 -8.9176 -12.4323 44.5319 -3.44503
14 1 -8.80124 -14.417 0.382779 -3.08818
15 1 -10.5876 -12.5411 0.618245 -3.32782
16 1 -7.02277 -14.1651 -1.28377 -3.34886
17 1 -5.27063 -12.2662 44.6353 -3.46156
18 1 -5.36681 -14.0906 0.637632 -3.4503
19 1 -7.16039 -12.3788 0.639212 -3.54317
20 1 -3.4896 -13.9313 44.5404 -3.42056
21 1 -1.726 -12.4905 -1.38681 -3.42777
22 1 -1.85407 -14.0717 0.647092 -3.46903
23 1 -3.65058 -12.3086 0.646776 -3.49068
24 1 0.105819 -14.3318 -1.31388 -3.49696
25 1 1.75457 -12.356 44.6158 -3.48795
26 1 1.88307 -14.1962 0.635016 -3.47947
27 1 -0.0754629 -12.362 0.630381 -3.50464
28 1 3.50047 -14.1189 44.6083 -3.42855
29 1 5.19716 -12.1828 -1.26192 -3.504
30 1 5.33454 -13.9993 0.697465 -3.47204
31 1 3.50339 -12.2535 0.725154 -3.53788
32 1 7.13832 -14.0377 44.5638 -3.41485
33 1 8.93829 -12.1656 44.4731 -3.44765
34 1 8.83981 -13.898 0.610245 -3.12402
35 1 7.01081 -12.1911 0.688608 -3.44817
36 1 10.4171 -14.0871 -1.20083 -2.7338
37 1 12.4228 -12.3441 -1.12317 -2.84783
38 1 10.6548 -12.2699 0.609073 -3.32783
39 1 -14.2983 -10.5277 -1.289 -2.65613
40 1 -12.3508 -8.81347 -1.28537 -3.49097
41 1 -12.2554 -10.6295 0.568027 -3.30409
42 1 -14.0785 -8.92928 0.714231 -3.08358
43 1 -10.4989 -10.617 44.5177 -3.48999
44 1 -8.87041 -8.80847 44.516 -3.48479
45 1 -8.98348 -10.6807 0.707509 -3.49921
46 1 -10.6186 -8.86495 0.791379 -3.46316
47 1 -7.1071 -10.6661 44.5646 -3.5282
48 1 -5.24204 -8.72979 -1.33093 -3.5285
49 1 -5.31849 -10.547 0.746034 -3.44786
50 1 -7.06283 -8.97037 0.617057 -3.48429
51 1 -3.55938 -10.6173 -1.43607 -3.498
52 1 -1.73142 -8.71871 44.5427 -3.53777
53 1 -1.71944 -10.5057 0.589397 -3.49029
54 1 -3.58912 -8.86344 0.519181 -3.51467
55 1 -0.024725 -10.6915 -1.26256 -3.49039
56 1 1.68555 -8.86009 -1.28637 -3.49178
57 1 1.64317 -10.4189 0.790544 -3.47686
58 1 -0.0705449 -8.77209 0.68707 -3.4464
59 1 3.40042 -10.5253 -1.21387 -3.48526
60 1 5.39924 -8.75892 44.6194 -3.51864
61 1 5.49122 -10.4839 0.595839 -3.44805
62 1 3.49812 -8.81142 0.783003 -3.5035
63 1 7.12707 -10.5416 44.5203 -3.4936
64 1 8.97706 -8.75498 44.5777 -3.51556
65 1 8.96833 -10.3962 0.72365 -3.45167
66 1 7.25989 -8.73756 0.682435 -3.49844
67 1 10.7817 -10.4835 44.5881 -3.49466
68 1 12.4776 -8.71389 -1.29097 -3.37965
69 1 12.4504 -10.5584 0.700278 -3.34306
70 1 10.5809 -8.73944 0.639223 -3.47478
71 1 14.0554 -10.3452 44.5846 -2.74348
72 1 14.2895 -8.83838 0.713603 -3.09981
73 1 -16.111 -5.44918 44.6791 -2.94769
74 1 -15.7465 -7.12185 0.814255 -2.74334
75 1 -14.1609 -7.08221 44.6299 -3.37369
76 1 -12.4391 -5.31062 44.6794 -3.51271
77 1 -12.3358 -7.10455 0.734472 -3.52379
78 1 -14.1664 -5.19596 0.808008 -3.4659
79 1 -10.5695 -7.09353 44.6118 -3.50876
80 1 -8.89037 -5.18904 44.6489 -3.50153
81 1 -8.82315 -7.26724 0.666586 -3.48488
82 1 -10.5072 -5.39871 0.718223 -3.51759
83 1 -7.13497 -7.02518 -1.3308 -3.48578
84 1 -5.35045 -5.40271 44.5927 -3.46827
85 1 -5.431 -7.08451 0.681184 -3.47769
86 1 -7.05929 -5.38485 0.679021 -3.49587
87 1 -3.56408 -6.95064 44.4908 -3.45025
88 1 -1.80825 -5.36297 44.5863 -3.4795
89 1 -1.7592 -7.02237 0.583413 -3.50695
90 1 -3.67762 -5.37967 0.708372 -3.50138
91 1 0.0783258 -6.99583 -1.30304 -3.48201
92 1 1.72286 -5.33587 44.5553 -3.45339
93 1 1.73786 -7.06155 0.786048 -3.50424
94 1 0.00831006 -5.24731 0.736177 -3.51142
95 1 3.4389 -7.00457 44.4955 -3.51219
96 1 5.33258 -5.40624 44.4945 -3.52285
97 1 5.30533 -7.09827 0.609852 -3.50045
98 1 3.55264 -5.38776 0.704257 -3.48851
99 1 7.27263 -7.0508 -1.37758 -3.45322
100 1 8.95512 -5.19072 44.601 -3.46437
101 1 8.98822 -6.83968 0.603154 -3.47196
102 1 7.12818 -5.35966 0.674391 -3.48339
103 1 10.7515 -6.96577 -1.24647 -3.51818
104 1 12.3324 -5.1092 -1.18951 -3.46583
105 1 12.5423 -7.02908 0.664673 -3.52718
106 1 10.7898 -5.2428 0.671264 -3.47702
107 1 14.2691 -7.00532 -1.29395 -3.37006
108 1 16.0112 -5.25356 -1.27455 -2.961
109 1 15.9289 -6.84471 0.635987 -2.75188
110 1 14.1789 -5.24176 0.716259 -3.44369
111 1 -16.1066 -1.7711 -1.33692 -3.02309
112 1 -16.0119 -3.46069 0.553144 -2.99052
113 1 -14.2017 -3.64405 -1.32668 -3.49278
114 1 -12.4563 -1.77337 -1.2513 -3.48133
115 1 -12.3239 -3.56576 0.75379 -3.48622
116 1 -14.2067 -2.02708 0.801704 -3.44092
117 1 -10.6975 -3.45625 -1.2109 -3.50316
118 1 -8.86517 -1.78921 -1.29054 -3.51156
119 1 -8.8158 -3.53796 0.63476 -3.50038
120 1 -10.4783 -1.76925 0.686733 -3.44822
121 1 -6.9911 -3.39569 -1.32018 -3.51842
122 1 -5.21871 -1.57085 44.6438 -3.49753
123 1 -5.28796 -3.51264 0.743265 -3.50207
124 1 -7.05519 -1.56305 0.59923 -3.53065
125 1 -3.70048 -3.54973 44.7036 -3.51735
126 1 -1.89231 -1.72363 44.5417 -3.50399
127 1 -1.88541 -3.56355 0.591641 -3.52443
128 1 -3.55174 -1.68131 0.683335 -3.51877
129 1 -0.0172909 -3.60227 44.611 -3.48612
130 1 1.71938 -1.80402 -1.13461 -3.44913
131 1 1.69617 -3.49371 0.68266 -3.52419
132 1 -0.29336 -1.71373 0.608565 -3.48849
133 1 3.58542 -3.50134 44.765 -3.49794
134 1 5.36674 -1.76296 -1.25762 -3.50948
135 1 5.43334 -3.69866 0.667784 -3.47884
136 1 3.73556 -1.78446 0.651215 -3.48491
137 1 7.24253 -3.67796 -1.39546 -3.44928
138 1 8.79445 -1.76726 44.621 -3.51323
139 1 8.9429 -3.42872 0.657816 -3.52168
140 1 7.04169 -1.86475 0.631838 -3.46949
141 1 10.789 -3.33812 44.721 -3.44569
142 1 12.6599 -1.76225 -1.28633 -3.52538
143 1 12.6586 -3.33199 0.730171 -3.50499
144 1 10.7589 -1.69587 0.615466 -3.46574
145 1 14.3314 -3.58681 44.599 -3.39775
146 1 15.9217 -1.86324 -1.26347 -3.12862
147 1 16.0631 -3.50131 0.666053 -3.04191
148 1 14.458 -1.5839 0.773664 -3.45759
149 1 -17.5257 -0.0343397 -0.984122 -2.37371
150 1 -16.0219 1.95908 44.791 -3.15189
151 1 -15.9465 -0.0996128 0.813208 -3.20594
152 1 -14.2587 -0.190176 -1.10142 -3.49733
153 1 -12.5389 1.71921 44.7506 -3.49159
154 1 -12.4107 -0.0326717 0.723285 -3.52322
155 1 -14.212 1.82203 0.802706 -3.37448
156 1 -10.5788 -0.08685 44.7191 -3.48899
157 1 -8.8088 1.81954 44.6191 -3.4888
158 1 -8.91336 0.0136524 0.658675 -3.43961
159 1 -10.6167 1.80152 0.546737 -3.49723
160 1 -6.99076 0.179692 44.5456 -3.50718
161 1 -5.19214 1.84337 -1.20613 -3.4426
162 1 -5.26501 0.133959 0.793401 -3.49673
163 1 -7.12356 1.76549 0.702304 -3.51141
164 1 -3.48154 0.156221 44.5119 -3.45821
165 1 -2.0121 2.01319 -1.37532 -3.38014
166 1 -1.81782 0.087263 0.765091 -3.46265
167 1 -3.49147 1.96985 0.842663 -3.51654
168 1 -0.239348 0.0577125 -1.21482 -3.53116
169 1 1.72412 1.73335 -1.30509 -3.52962
170 1 1.66362 -0.101072 0.578481 -3.48358
171 1 -0.0727137 1.82465 0.653549 -3.53619
172 1 3.61335 0.0133184 44.8193 -3.4569
173 1 5.23475 1.81359 -1.108 -3.47522
174 1 5.40703 -0.025659 0.711815 -3.46285
175 1 3.49368 1.71541 0.718357 -3.49438
176 1 7.01931 0.156162 -1.29638 -3.49729
177 1 8.89859 1.78636 44.5615 -3.51106
178 1 8.85089 -0.147339 0.683339 -3.51316
179 1 7.13759 1.74214 0.644821 -3.50983
180 1 10.6929 -0.0210878 -1.37295 -3.52047
181 1 12.4395 1.80366 -1.18126 -3.4947
182 1 12.4127 0.119573 0.683947 -3.50205
183 1 10.5602 1.64586 0.742069 -3.47377
184 1 14.2685 0.160644 -1.13368 -3.48102
185 1 15.9894 1.82533 44.6814 -3.10678
186 1 16.1728 0.141813 0.701888 -3.19247
187 1 14.2533 1.83378 0.778327 -3.49895
188 1 17.5509 -0.125285 44.5291 -2.37685
189 1 -15.7494 5.30443 -1.11959 -3.02351
190 1 -16.0162 3.69062 0.737397 -3.01356
191 1 -14.1252 3.49186 -1.13251 -3.44518
192 1 -12.473 5.4302 -1.13748 -3.54248
193 1 -12.3224 3.49371 0.696769 -3.47613
194 1 -14.1265 5.35991 0.7687 -3.45591
195 1 -10.6194 3.61599 -1.33752 -3.49464
196 1 -8.83633 5.17774 -1.34071 -3.48874
197 1 -8.83173 3.55742 0.572993 -3.50989
198 1 -10.7037 5.34128 0.702253 -3.50548
199 1 -7.00724 3.42433 44.6383 -3.46288
200 1 -5.4305 5.3829 -1.22523 -3.51472
201 1 -5.42564 3.60193 0.627113 -3.45132
202 1 -7.01726 5.36619 0.651024 -3.48883
203 1 -3.7006 3.61095 -1.17993 -3.41962
204 1 -1.85338 5.31153 -1.18041 -3.49641
205 1 -1.78015 3.75977 0.63037 -3.47532
206 1 -3.70696 5.37752 0.721238 -3.53114
207 1 -0.0209002 3.54311 44.587 -3.52926
208 1 1.84045 5.20114 44.539 -3.49199
209 1 1.75888 3.56613 0.803851 -3.44677
210 1 0.102169 5.28391 0.696321 -3.4681
211 1 3.59242 3.60866 44.7846 -3.44592
212 1 5.35356 5.28497 -1.28378 -3.51828
213 1 5.31383 3.48287 0.754513 -3.48988
214 1 3.60797 5.35966 0.635607 -3.52429
215 1 7.05114 3.49193 -1.09893 -3.51576
216 1 8.78078 5.22301 -1.098 -3.46665
217 1 9.05133 3.50421 0.729649 -3.48526
218 1 7.15965 5.29808 0.724606 -3.49404
219 1 10.602 3.49144 -1.16026 -3.47913
220 1 12.37 5.41706 44.6906 -3.47993
221 1 12.3569 3.5602 0.791917 -3.53989
222 1 10.6341 5.48291 0.659687 -3.45298
223 1 14.3005 3.4436 -1.08954 -3.42514
224 1 15.9356 5.25155 -1.1409 -2.99866
225 1 16.0962 3.52947 0.906339 -3.01668
226 1 14.2611 5.22291 0.826814 -3.48902
227 1 -15.898 7.11707 0.920962 -2.74047
228 1 -14.3714 7.28521 -1.10067 -3.33711
229 1 -12.3976 8.87892 -0.973336 -3.36169
230 1 -12.426 7.11706 0.778687 -3.5024
231 1 -14.3282 8.97314 0.748564 -3.08522
232 1 -10.5361 7.15689 -1.26914 -3.50315
233 1 -8.97872 8.95754 -1.33159 -3.45097
234 1 -8.87416 7.0686 0.632004 -3.50314
235 1 -10.4888 8.93927 0.786733 -3.49301
236 1 -7.26804 7.1574 -1.34265 -3.52038
237 1 -5.36738 8.94703 44.6053 -3.50736
238 1 -5.35045 7.25198 0.732988 -3.49616
239 1 -7.22129 9.0056 0.68478 -3.50479
240 1 -3.68049 7.14319 -1.25942 -3.52146
241 1 -1.69707 8.99557 -1.24217 -3.49455
242 1 -1.77751 7.14737 0.652689 -3.51761
243 1 -3.40881 8.87877 0.704758 -3.4575
244 1 -0.0491609 6.94012 44.5782 -3.51234
245 1 1.90185 8.89861 -1.30243 -3.4994
246 1 1.81498 7.23063 0.620711 -3.4977
247 1 0.16249 8.933 0.687065 -3.49018
248 1 3.58919 7.1253 44.5197 -3.46995
249 1 5.44039 8.87951 44.6132 -3.47949
250 1 5.47436 7.08093 0.64121 -3.51216
251 1 3.61446 8.93122 0.725705 -3.50843
252 1 7.27112 7.03584 -1.18661 -3.49093
253 1 8.90528 8.86155 -1.19307 -3.53633
254 1 8.87289 7.15132 0.859586 -3.50624
255 1 7.13429 9.05013 0.636348 -3.49992
256 1 10.6774 7.11233 44.6723 -3.49178
257 1 12.4562 8.79244 44.5682 -3.43897
258 1 12.4103 7.06493 0.807676 -3.50073
259 1 10.726 9.023 0.730643 -3.54092
260 1 14.1615 7.10167 44.7717 -3.36136
261 1 15.9295 7.07514 0.688705 -2.73221
262 1 14.1935 8.90612 0.699594 -3.11531
263 1 -13.9812 10.4803 -1.29333 -2.75184
264 1 -12.2493 12.5263 -1.03865 -2.87148
265 1 -12.3996 10.7692 0.693205 -3.33985
266 1 -10.8152 10.605 44.6151 -3.42444
267 1 -9.06849 12.2949 -1.28945 -3.46984
268 1 -8.92233 10.8226 0.748899 -3.47811
269 1 -10.7405 12.6042 0.822324 -3.23399
270 1 -7.23851 10.6579 44.5876 -3.49166
271 1 -5.34972 12.3788 -1.27507 -3.5023
272 1 -5.38431 10.7957 0.556922 -3.5095
273 1 -7.09044 12.6234 0.599332 -3.47635
274 1 -3.55974 10.6276 44.4934 -3.51754
275 1 -1.72191 12.373 44.5734 -3.50386
276 1 -1.77409 10.609 0.641783 -3.43066
277 1 -3.38896 12.2826 0.574143 -3.40374
278 1 0.0206221 10.737 -1.15258 -3.46701
279 1 1.81133 12.3541 44.5843 -3.47836
280 1 1.89161 10.6627 0.747262 -3.46693
281 1 0.131253 12.4465 0.746679 -3.55501
282 1 3.75448 10.6363 44.6791 -3.48258
283 1 5.35643 12.3929 44.4988 -3.47662
284 1 5.46039 10.7631 0.653228 -3.49081
285 1 3.47016 12.5125 0.494641 -3.48235
286 1 6.99247 10.5889 -1.44066 -3.46449
287 1 9.02296 12.243 44.5214 -3.43756
288 1 8.94481 10.7194 0.642942 -3.4843
289 1 7.23165 12.4139 0.639972 -3.48493
290 1 10.81 10.6404 -1.21756 -3.47161
291 1 12.4602 12.4271 -1.38576 -2.85849
292 1 12.566 10.7315 0.68107 -3.29382
293 1 10.8988 12.4323 0.540722 -3.30305
294 1 14.1639 10.5252 -1.25223 -2.7416
295 1 -10.5828 14.2853 44.5519 -2.67472
296 1 -8.73174 14.38 0.709927 -3.04283
297 1 -7.06945 14.238 -1.27318 -3.3477
298 1 -5.18066 16.0366 44.5722 -2.98926
299 1 -5.12967 14.0669 0.681212 -3.4577
300 1 -6.80343 15.8437 0.547505 -2.78396
301 1 -3.61048 14.1256 -1.26057 -3.47574
302 1 -1.98291 16.0457 44.9098 -3.10402
303 1 -1.88017 14.1681 0.730688 -3.49684
304 1 -3.75852 16.0836 0.823764 -3.01552
305 1 0.016891 14.1966 44.5976 -3.55297
306 1 1.74927 16.0979 44.4858 -3.07077
307 1 1.76076 14.3321 0.656295 -3.45343
308 1 -0.0710481 15.8855 0.67964 -3.16635
309 1 3.55152 14.2858 44.3604 -3.41058
310 1 5.3455 16.0148 44.4648 -2.96752
311 1 5.25753 14.0993 0.651039 -3.46657
312 1 3.56802 16.0674 0.504915 -2.99352
313 1 7.3226 14.1744 44.4997 -3.36704
314 1 8.96321 14.1574 0.671857 -3.10306
315 1 7.16268 15.858 0.49073 -2.69766
316 1 10.575 14.0938 -1.4565 -2.73782
317 1 -0.0925732 17.417 -1.08469 -2.3959
318 1 -5.29287 -15.9716 2.52836 -3.00159
319 1 -7.07964 -16.2074 4.60378 -2.56589
320 1 -1.99197 -16.0431 2.53286 -3.07903
321 1 -3.62605 -16.0487 4.3961 -2.98359
322 1 -0.00863327 -17.2629 2.82988 -2.45298
323 1 1.82343 -15.8602 2.65732 -3.04628
324 1 -0.0781873 -15.7752 4.65543 -3.03758
325 1 5.42273 -15.679 2.61908 -2.99595
326 1 3.60876 -15.8806 4.43331 -3.05322
327 1 7.08082 -15.8312 4.46881 -2.73803
328 1 -12.2437 -12.4861 2.54715 -2.83022
329 1 -10.2113 -14.3541 2.48045 -2.71965
330 1 -8.88925 -12.3282 2.50391 -3.42866
331 1 -8.63307 -14.3072 4.55156 -3.10012
332 1 -10.5133 -12.5222 4.35226 -3.34355
333 1 -7.22596 -14.2642 2.44817 -3.38979
334 1 -5.29191 -12.412 2.60482 -3.51716
335 1 -5.39441 -14.1612 4.45716 -3.49854
336 1 -7.11375 -12.4384 4.48046 -3.48577
337 1 -3.54483 -14.1643 2.44676 -3.43211
338 1 -1.79848 -12.4661 2.53117 -3.48172
339 1 -1.81747 -14.3795 4.45212 -3.38245
340 1 -3.39454 -12.4678 4.41328 -3.51573
341 1 0.0534677 -14.3854 2.538 -3.45974
342 1 1.74638 -12.3972 2.66743 -3.52627
343 1 1.66665 -14.2661 4.52509 -3.38726
344 1 -0.0317061 -12.463 4.48363 -3.53541
345 1 3.60166 -14.0871 2.55 -3.45715
346 1 5.27078 -12.235 2.62444 -3.48142
347 1 5.25471 -14.0106 4.42055 -3.44382
348 1 3.47331 -12.3936 4.49765 -3.51756
349 1 7.05359 -13.8914 2.74919 -3.34126
350 1 8.87753 -12.2474 2.48992 -3.41247
351 1 8.84515 -14.079 4.32249 -3.07618
352 1 7.27993 -12.367 4.63277 -3.40771
353 1 10.5106 -14.0023 2.49732 -2.72768
354 1 12.2702 -12.2269 2.52594 -2.91669
355 1 10.7626 -12.3732 4.43823 -3.33016
356 1 -14.0511 -10.6771 3.10413 -2.58516
357 1 -12.4268 -8.89429 2.69938 -3.44466
358 1 -12.1649 -10.6148 4.53567 -3.27439
359 1 -14.1674 -8.77949 4.55193 -3.09998
360 1 -10.6442 -10.5764 2.73668 -3.43348
361 1 -8.76165 -8.89604 2.54494 -3.51207
362 1 -8.75376 -10.5968 4.43164 -3.47353
363 1 -10.3757 -8.9077 4.55507 -3.45393
364 1 -6.99499 -10.6874 2.58477 -3.49054
365 1 -5.36444 -8.84685 2.66592 -3.48611
366 1 -5.21875 -10.6833 4.48912 -3.50946
367 1 -6.85857 -8.94891 4.59228 -3.4626
368 1 -3.40625 -10.6026 2.53244 -3.50867
369 1 -1.80046 -8.8231 2.64142 -3.455
370 1 -1.65456 -10.6727 4.59847 -3.44407
371 1 -3.56736 -8.84262 4.35808 -3.51094
372 1 -0.0129609 -10.6647 2.67943 -3.51238
373 1 1.775 -8.9195 2.73246 -3.48468
374 1 1.70523 -10.6493 4.47333 -3.49896
375 1 -0.149132 -8.81582 4.54962 -3.49101
376 1 3.53364 -10.5899 2.5383 -3.45576
377 1 5.40847 -8.90399 2.68857 -3.53228
378 1 5.38786 -10.7687 4.5133 -3.47849
379 1 3.61664 -8.91804 4.39454 -3.50854
380 1 7.28845 -10.5612 2.58982 -3.4816
381 1 8.85771 -8.66078 2.49912 -3.37222
382 1 8.99146 -10.5999 4.44202 -3.52476
383 1 7.02855 -8.85102 4.66075 -3.48642
384 1 10.6594 -10.3588 2.66725 -3.50411
385 1 12.527 -8.88868 2.52072 -3.3876
386 1 12.5673 -10.6782 4.41716 -3.31193
387 1 10.8056 -8.85635 4.68585 -3.48224
388 1 14.1952 -10.562 2.52095 -2.72851
389 1 14.3618 -8.99103 4.53636 -3.10199
390 1 -16.0592 -5.21014 2.37237 -2.93864
391 1 -15.7733 -6.74582 4.32833 -2.78568
392 1 -14.0002 -6.99798 2.63974 -3.36232
393 1 -12.2089 -5.36987 2.57596 -3.47875
394 1 -12.257 -7.11361 4.53232 -3.52324
395 1 -14.0068 -5.34139 4.77567 -3.32767
396 1 -10.5038 -7.15285 2.6026 -3.50961
397 1 -8.82404 -5.36583 2.66641 -3.5067
398 1 -8.58026 -7.11444 4.64734 -3.49581
399 1 -10.627 -5.14153 4.40927 -3.48714
400 1 -7.03292 -7.13433 2.62126 -3.48442
401 1 -5.36877 -5.30104 2.60825 -3.49991
402 1 -5.28625 -7.04773 4.53 -3.48438
403 1 -7.08846 -5.19718 4.4119 -3.4939
404 1 -3.4965 -7.03888 2.589 -3.53744
405 1 -1.78839 -5.17043 2.59661 -3.49897
406 1 -1.79927 -6.94878 4.49655 -3.46601
407 1 -3.57878 -5.3724 4.45535 -3.48059
408 1 -0.131644 -7.10643 2.6915 -3.50271
409 1 1.74018 -5.21682 2.6182 -3.47539
410 1 1.80315 -7.15908 4.58738 -3.51588
411 1 0.0538147 -5.40617 4.51869 -3.46726
412 1 3.4701 -6.97934 2.53804 -3.48716
413 1 5.4106 -5.3998 2.63601 -3.50137
414 1 5.30585 -7.09088 4.60223 -3.48885
415 1 3.52481 -5.35193 4.60908 -3.49657
416 1 7.12073 -7.11511 2.61193 -3.42778
417 1 8.91815 -5.24748 2.70917 -3.53683
418 1 8.90307 -7.09523 4.3921 -3.48647
419 1 7.13222 -5.47564 4.47217 -3.46754
420 1 10.7629 -7.2435 2.66604 -3.47886
421 1 12.3042 -5.32547 2.61922 -3.4886
422 1 12.6059 -7.08081 4.4552 -3.4734
423 1 10.784 -5.23722 4.50792 -3.47282
424 1 14.3587 -7.25491 2.55365 -3.33137
425 1 15.8122 -5.28409 2.64239 -3.02418
426 1 15.8696 -6.95815 4.64282 -2.73603
427 1 14.0952 -5.3507 4.36941 -3.35844
428 1 -16.1107 -2.04541 2.75675 -3.12619
429 1 -16.0466 -3.89529 4.58939 -3.04874
430 1 -14.1941 -3.67058 2.75902 -3.4687
431 1 -12.3446 -1.83403 2.47389 -3.49134
432 1 -12.4365 -3.50655 4.49434 -3.45007
433 1 -14.1832 -1.84149 4.43395 -3.48128
434 1 -10.5237 -3.56501 2.46056 -3.49451
435 1 -8.91245 -1.60953 2.51246 -3.44305
436 1 -8.91473 -3.33155 4.44223 -3.49555
437 1 -10.7865 -1.73034 4.31628 -3.48021
438 1 -7.21053 -3.36203 2.64649 -3.51277
439 1 -5.32813 -1.73269 2.69494 -3.49467
440 1 -5.31632 -3.34331 4.54067 -3.4803
441 1 -7.12781 -1.69113 4.67538 -3.48232
442 1 -3.62072 -3.65683 2.56129 -3.45396
443 1 -1.92377 -1.78715 2.61419 -3.51586
444 1 -1.58736 -3.56304 4.70251 -3.4351
445 1 -3.38046 -1.94761 4.59488 -3.45367
446 1 -0.0698569 -3.46002 2.58734 -3.49548
447 1 1.69147 -1.62262 2.41161 -3.47326
448 1 1.73751 -3.71074 4.47929 -3.44148
449 1 0.124606 -1.83449 4.38385 -3.47518
450 1 3.55965 -3.52505 2.67952 -3.4947
451 1 5.44401 -1.76215 2.547 -3.50345
452 1 5.31875 -3.55086 4.3987 -3.49496
453 1 3.39882 -1.77934 4.3148 -3.49299
454 1 7.14019 -3.48932 2.64836 -3.48057
455 1 8.91438 -1.83815 2.69711 -3.49343
456 1 9.0668 -3.60477 4.66482 -3.43614
457 1 7.14662 -1.81106 4.63261 -3.48319
458 1 10.8636 -3.34007 2.65011 -3.48398
459 1 12.5849 -1.66973 2.56642 -3.4766
460 1 12.4831 -3.45146 4.48722 -3.51097
461 1 10.6959 -1.67874 4.54917 -3.50095
462 1 14.2325 -3.40838 2.67738 -3.41606
463 1 16.0998 -1.9372 2.58042 -3.0994
464 1 15.9722 -3.56071 4.57244 -3.04705
465 1 14.355 -1.71928 4.44929 -3.4666
466 1 -17.6162 -0.109988 2.41942 -2.51406
467 1 -16.1625 1.93995 2.40159 -3.14883
468 1 -16.2471 -0.306928 4.54318 -3.13554
469 1 -14.268 -0.112466 2.63509 -3.51167
470 1 -12.4135 1.63923 2.44331 -3.47255
471 1 -12.4655 0.111776 4.53977 -3.48763
472 1 -14.4965 1.56347 4.36605 -3.50967
473 1 -10.6377 0.00964955 2.52007 -3.46421
474 1 -8.92797 1.8314 2.56504 -3.54121
475 1 -9.02099 -0.0903632 4.55758 -3.5056
476 1 -10.7998 1.80235 4.55387 -3.46888
477 1 -7.04565 0.00382839 2.66286 -3.50781
478 1 -5.24311 1.79773 2.54613 -3.47477
479 1 -5.20761 0.0251849 4.53704 -3.50827
480 1 -7.17821 1.72175 4.38989 -3.51195
481 1 -3.60281 0.0139422 2.72491 -3.46826
482 1 -1.78606 1.80273 2.64844 -3.4849
483 1 -1.83084 -0.0685994 4.56337 -3.52795
484 1 -3.47688 1.90377 4.502 -3.51778
485 1 -0.122365 0.0307438 2.64088 -3.50504
486 1 1.76549 1.78692 2.56598 -3.53141
487 1 1.76177 0.0522437 4.41633 -3.51045
488 1 -0.0243471 1.84652 4.43247 -3.50974
489 1 3.52301 0.0118377 2.5112 -3.51995
490 1 5.46072 1.59953 2.48995 -3.49617
491 1 5.22905 -0.0173399 4.42975 -3.5113
492 1 3.73936 1.8336 4.29548 -3.46733
493 1 7.23052 -0.0738625 2.84925 -3.43514
494 1 8.91014 1.62794 2.71875 -3.45131
495 1 8.89429 0.0405778 4.7009 -3.50143
496 1 7.13102 1.8652 4.36446 -3.49105
497 1 10.6143 -0.0255773 2.65696 -3.50153
498 1 12.5013 1.69854 2.69675 -3.50993
499 1 12.3311 0.120447 4.54545 -3.45376
500 1 10.7254 1.83596 4.52517 -3.45315
501 1 14.3844 0.0697358 2.61045 -3.52038
502 1 16.2307 1.80541 2.51801 -3.06963
503 1 16.2269 -0.0384301 4.50131 -3.18434
504 1 14.2758 1.85427 4.56184 -3.48103
505 1 17.6691 -0.110062 2.59295 -2.35831
506 1 -15.8095 5.3102 2.62465 -3.04564
507 1 -15.8662 3.5394 4.42737 -3.10718
508 1 -14.1849 3.43275 2.34082 -3.33464
509 1 -12.4886 5.23437 2.62169 -3.5084
510 1 -12.6276 3.36992 4.4711 -3.52103
511 1 -14.1124 5.37293 4.63047 -3.40321
512 1 -10.7678 3.54511 2.61365 -3.50298
513 1 -8.87773 5.34993 2.6196 -3.51042
514 1 -8.9484 3.55305 4.55735 -3.49052
515 1 -10.6894 5.31294 4.62973 -3.50912
516 1 -7.0861 3.63233 2.64224 -3.51758
517 1 -5.29553 5.46958 2.65108 -3.47142
518 1 -5.33979 3.79977 4.65148 -3.4667
519 1 -7.16191 5.32761 4.48691 -3.48468
520 1 -3.45793 3.76356 2.67786 -3.51863
521 1 -1.73062 5.44435 2.55115 -3.46485
522 1 -1.76061 3.68023 4.62356 -3.50395
523 1 -3.47133 5.50368 4.60221 -3.45632
524 1 -0.120681 3.685 2.58567 -3.48524
525 1 1.80561 5.17358 2.51033 -3.46604
526 1 1.7893 3.53783 4.41266 -3.46904
527 1 0.105037 5.27186 4.55136 -3.49927
528 1 3.61262 3.43083 2.47891 -3.46622
529 1 5.28073 5.23103 2.52345 -3.5071
530 1 5.37244 3.55913 4.52407 -3.47149
531 1 3.46637 5.16928 4.38806 -3.45011
532 1 7.16494 3.60009 2.54068 -3.53195
533 1 8.97049 5.45406 2.7275 -3.51396
534 1 8.93288 3.61826 4.62859 -3.50427
535 1 7.02371 5.33265 4.42234 -3.51286
536 1 10.7635 3.5783 2.60029 -3.49368
537 1 12.5314 5.28594 2.73423 -3.48896
538 1 12.4338 3.542 4.45271 -3.47945
539 1 10.7939 5.47195 4.61431 -3.52716
540 1 14.2784 3.5039 2.7331 -3.48462
541 1 16.0444 5.33962 2.58237 -3.00509
542 1 16.1862 3.52594 4.39778 -2.98864
543 1 14.2602 5.37681 4.52195 -3.43775
544 1 -15.9329 7.08249 4.29786 -2.70887
545 1 -14.1256 7.26463 2.66066 -3.39233
546 1 -12.2425 9.02079 2.51628 -3.44161
547 1 -12.4954 7.11326 4.53521 -3.47694
548 1 -14.1528 8.89102 4.53533 -3.10846
549 1 -10.7364 7.02412 2.60396 -3.51098
550 1 -8.91448 8.98569 2.55349 -3.49159
551 1 -9.0094 7.05263 4.56829 -3.49527
552 1 -10.7261 8.90277 4.4144 -3.49641
553 1 -7.04816 7.16668 2.5393 -3.50233
554 1 -5.25505 9.09038 2.73561 -3.47706
555 1 -5.41611 7.19332 4.63108 -3.47616
556 1 -7.13926 8.89796 4.63983 -3.48687
557 1 -3.52581 7.07955 2.73403 -3.47078
558 1 -1.77326 8.88639 2.6313 -3.51571
559 1 -1.75977 7.0618 4.76854 -3.44473
560 1 -3.5669 8.82042 4.57542 -3.50069
561 1 0.123147 7.15219 2.49705 -3.5174
562 1 1.84353 8.9756 2.53341 -3.45518
563 1 1.88562 6.98725 4.34 -3.49384
564 1 0.0622173 8.83583 4.3877 -3.50766
565 1 3.51357 7.16675 2.4854 -3.50983
566 1 5.36046 8.91922 2.44909 -3.51146
567 1 5.21171 7.05403 4.42226 -3.53971
568 1 3.511 8.8932 4.35331 -3.51769
569 1 7.02104 7.02318 2.48699 -3.47642
570 1 8.94162 8.92179 2.60473 -3.53907
571 1 8.80819 7.20833 4.55532 -3.4936
572 1 7.04724 9.01479 4.33937 -3.49473
573 1 10.7801 7.13595 2.67711 -3.50579
574 1 12.6201 8.95567 2.61642 -3.40683
575 1 12.7187 7.1646 4.60044 -3.47586
576 1 10.7952 8.98868 4.4657 -3.51409
577 1 14.3182 7.13 2.64068 -3.37308
578 1 16.0962 6.91055 4.57365 -2.71785
579 1 14.544 8.80446 4.86361 -3.0448
580 1 -14.1475 10.4478 2.64463 -2.73505
581 1 -12.4345 12.4497 2.54405 -2.84867
582 1 -12.506 10.6885 4.35681 -3.29104
583 1 -10.6092 10.8972 2.45391 -3.40816
584 1 -8.70153 12.3929 2.66791 -3.4245
585 1 -8.96778 10.6966 4.45677 -3.53012
586 1 -10.7074 12.6159 4.43621 -3.29804
587 1 -7.09097 10.6774 2.55267 -3.43398
588 1 -5.40386 12.4315 2.66036 -3.51527
589 1 -5.35903 10.738 4.52891 -3.51907
590 1 -7.15144 12.5616 4.66332 -3.42448
591 1 -3.46994 10.7746 2.55544 -3.49227
592 1 -1.67089 12.5543 2.57952 -3.48487
593 1 -1.67288 10.6986 4.57478 -3.47862
594 1 -3.38096 12.3048 4.55658 -3.48469
595 1 0.0884959 10.6337 2.66467 -3.51698
596 1 1.84099 12.4714 2.60274 -3.44475
597 1 1.83701 10.8026 4.5064 -3.50792
598 1 0.0124817 12.5417 4.55681 -3.52534
599 1 3.59874 10.7696 2.47319 -3.50415
600 1 5.30641 12.4666 2.44545 -3.45995
601 1 5.36234 10.8697 4.51248 -3.43719
602 1 3.63502 12.3971 4.48161 -3.46065
603 1 7.10608 10.7282 2.66258 -3.49478
604 1 8.8979 12.384 2.64511 -3.45277
605 1 8.886 10.6634 4.54126 -3.4986
606 1 7.16082 12.481 4.42425 -3.48598
607 1 10.6922 10.7138 2.63216 -3.47862
608 1 12.3939 12.3765 2.68689 -2.87293
609 1 12.5734 10.6181 4.65813 -3.27385
610 1 10.6502 12.3724 4.56339 -3.34752
611 1 14.2544 10.5911 2.7731 -2.63936
612 1 -10.4061 14.2124 2.57555 -2.7614
613 1 -8.98317 14.2255 4.68125 -3.07374
614 1 -7.22993 14.3844 2.64651 -3.32181
615 1 -5.32813 15.8438 2.79775 -2.97417
616 1 -5.37027 14.028 4.51117 -3.37983
617 1 -6.80933 15.8438 4.68801 -2.71419
618 1 -3.53681 14.1602 2.68777 -3.45784
619 1 -1.86278 15.96 2.60045 -3.16063
620 1 -1.83378 14.2559 4.47595 -3.40183
621 1 -3.48235 15.8112 4.55568 -3.00924
622 1 -0.0667052 14.3109 2.57701 -3.46564
623 1 1.74137 16.0062 2.56486 -3.13993
624 1 1.77989 14.3143 4.55403 -3.46939
625 1 -0.0364443 16.0458 4.24342 -3.13432
626 1 3.34425 14.1444 2.54658 -3.40233
627 1 5.2384 15.9557 2.37813 -2.99498
628 1 5.36274 14.2292 4.38718 -3.4604
629 1 3.57253 15.9497 4.3869 -3.03755
630 1 7.00761 14.094 2.56771 -3.32353
631 1 9.0246 14.26 4.41755 -3.08438
632 1 7.07551 15.9832 4.0795 -2.67428
633 1 10.638 14.1104 2.54914 -2.70366
634 1 -0.155661 17.6233 2.23716 -2.38023
635 1 -5.17733 -16.0062 6.29055 -2.98014
636 1 -6.73933 -15.9306 8.32005 -2.75065
637 1 -1.87259 -16.1166 6.57042 -3.11057
638 1 -3.5555 -15.9223 8.48881 -3.0624
639 1 0.212377 -17.3672 6.33383 -2.41644
640 1 1.7779 -15.6408 6.39683 -3.06537
641 1 0.010475 -15.959 8.27456 -3.23288
642 1 5.36921 -15.6844 6.24109 -3.03127
643 1 3.70648 -15.859 8.19895 -3.06687
644 1 6.96583 -15.8376 8.20546 -2.74623
645 1 -12.2794 -12.4711 6.15281 -2.7921
646 1 -10.3991 -14.1899 6.37711 -2.69702
647 1 -8.80949 -12.4807 6.45296 -3.44877
648 1 -8.77475 -14.2923 8.50863 -3.08659
649 1 -10.5627 -12.5308 8.34747 -3.30322
650 1 -7.03446 -14.3111 6.44876 -3.37419
651 1 -5.31403 -12.4482 6.41516 -3.5115
652 1 -5.22807 -14.106 8.32748 -3.41046
653 1 -7.02603 -12.4683 8.37251 -3.51175
654 1 -3.40493 -14.1846 6.39934 -3.48248
655 1 -1.78525 -12.4005 6.42326 -3.47255
656 1 -1.69087 -14.1336 8.45654 -3.48424
657 1 -3.55152 -12.4211 8.30803 -3.5004
658 1 -0.152203 -14.1723 6.49685 -3.5015
659 1 1.70682 -12.3789 6.46919 -3.537
660 1 1.73872 -14.1626 8.23396 -3.4669
661 1 -0.0077515 -12.3605 8.37036 -3.46266
662 1 3.57716 -14.0561 6.34773 -3.43947
663 1 5.36102 -12.3697 6.311 -3.52348
664 1 5.39493 -14.0425 8.21148 -3.444
665 1 3.47184 -12.4029 8.24462 -3.498
666 1 7.28071 -14.1324 6.22851 -3.34614
667 1 8.94011 -12.2682 6.41494 -3.39091
668 1 8.76337 -14.2518 8.22941 -3.0893
669 1 7.208 -12.4886 8.19162 -3.44325
670 1 10.5158 -14.1433 6.43529 -2.71141
671 1 12.3922 -12.3068 6.33242 -2.89165
672 1 10.7714 -12.4937 8.35808 -3.35511
673 1 -13.9665 -10.4442 6.41191 -2.77114
674 1 -12.2928 -8.76731 6.41525 -3.42976
675 1 -12.3216 -10.6592 8.42134 -3.30773
676 1 -14.0433 -8.85849 8.38424 -3.14142
677 1 -10.5299 -10.6701 6.40476 -3.52103
678 1 -8.63973 -9.01569 6.28924 -3.44515
679 1 -8.73572 -10.6805 8.22855 -3.49129
680 1 -10.6267 -8.80663 8.29083 -3.50314
681 1 -7.0205 -10.7785 6.49152 -3.47343
682 1 -5.17866 -8.94159 6.34283 -3.50276
683 1 -5.26584 -10.643 8.3716 -3.52099
684 1 -6.98895 -8.88361 8.2641 -3.49236
685 1 -3.55692 -10.6874 6.488 -3.48124
686 1 -1.92981 -8.76474 6.29765 -3.53497
687 1 -1.73918 -10.6879 8.28012 -3.50563
688 1 -3.41834 -8.91321 8.32932 -3.50826
689 1 -0.011202 -10.566 6.30303 -3.49212
690 1 1.85184 -8.93988 6.26131 -3.45845
691 1 1.51726 -10.561 8.35668 -3.45582
692 1 -0.15777 -8.78373 8.28304 -3.49326
693 1 3.48602 -10.7226 6.54076 -3.48117
694 1 5.3341 -9.03335 6.34797 -3.50318
695 1 5.38592 -10.7087 8.32873 -3.54009
696 1 3.61507 -8.97604 8.49703 -3.42479
697 1 7.25372 -10.6232 6.49893 -3.50123
698 1 9.13439 -8.81889 6.45628 -3.43588
699 1 8.97281 -10.669 8.29594 -3.51214
700 1 7.17053 -8.83929 8.43098 -3.50052
701 1 10.6503 -10.6096 6.4869 -3.42639
702 1 12.5606 -8.93874 6.51318 -3.44162
703 1 12.5828 -10.7117 8.28039 -3.30699
704 1 10.8481 -8.92619 8.40681 -3.53391
705 1 14.2682 -10.5634 6.51651 -2.69034
706 1 14.2143 -8.92236 8.46109 -3.11592
707 1 -15.9485 -5.41226 6.52169 -2.97132
708 1 -15.8127 -6.87355 8.43937 -2.7447
709 1 -14.2852 -7.23893 6.49602 -3.34395
710 1 -12.367 -5.33755 6.40533 -3.4549
711 1 -12.3816 -7.00152 8.24989 -3.49373
712 1 -14.0346 -5.23929 8.43553 -3.41445
713 1 -10.5961 -7.08909 6.48901 -3.46979
714 1 -8.90246 -5.18243 6.35023 -3.52398
715 1 -8.79761 -7.08266 8.25956 -3.51748
716 1 -10.5325 -5.3133 8.35487 -3.47169
717 1 -6.94952 -7.16011 6.5028 -3.5
718 1 -5.34752 -5.24919 6.3288 -3.48379
719 1 -5.28018 -7.18284 8.40304 -3.49136
720 1 -7.04167 -5.1324 8.31187 -3.50042
721 1 -3.72121 -6.99188 6.36674 -3.46831
722 1 -1.84075 -5.25274 6.42661 -3.48972
723 1 -1.85996 -6.91779 8.39745 -3.45527
724 1 -3.63383 -5.33544 8.26692 -3.4429
725 1 0.00266646 -7.12471 6.53387 -3.53372
726 1 1.90956 -5.37904 6.53542 -3.48786
727 1 1.81389 -7.23445 8.32101 -3.49659
728 1 0.18499 -5.4033 8.45368 -3.50464
729 1 3.49438 -7.21667 6.46523 -3.47341
730 1 5.26612 -5.41934 6.52079 -3.51206
731 1 5.28696 -7.28433 8.33815 -3.49594
732 1 3.44204 -5.43941 8.53127 -3.52332
733 1 7.17898 -7.28015 6.53927 -3.49094
734 1 8.95419 -5.37333 6.55655 -3.49275
735 1 9.0307 -7.14255 8.25153 -3.47908
736 1 6.99368 -5.46893 8.2982 -3.50632
737 1 10.7267 -7.02623 6.39593 -3.48752
738 1 12.559 -5.23817 6.2577 -3.51651
739 1 12.5379 -7.09471 8.22631 -3.47409
740 1 10.7406 -5.36482 8.32047 -3.51432
741 1 14.2404 -7.1052 6.42869 -3.31556
742 1 15.745 -5.27737 6.29497 -2.99239
743 1 15.8738 -6.78104 8.3337 -2.76781