ITEM: TIMESTEP
100000
ITEM: NUMBER OF ATOMS
3804
ITEM: BOX BOUNDS ss ss pp
-1.8541915475331969e+01 1.9095777363947583e+01
-1.6910320555905308e+01 1.6592895729742672e+01
-2.1690000000000000e+00 4.5549000000000007e+01
ITEM: ATOMS id type x y z c_peratom
1 1 -5.60666 -14.8396 45.0511 -2.84189
2 1 -7.21389 -14.5389 -0.341498 -2.75297
3 1 -2.59005 -14.5226 44.5755 -3.09704
4 1 -4.20684 -14.8325 -0.758432 -2.95427
5 1 -0.762252 -16.1658 44.6737 -2.58314
6 1 1.65065 -15.6524 44.0387 -2.94971
7 1 -0.946441 -15.041 -0.911504 -3.09329
8 1 5.94096 -15.0416 -2.03629 -2.72655
9 1 3.10472 -14.9855 0.355953 -2.87495
10 1 7.69234 -14.0709 0.617825 -2.72811
11 1 -12.9203 -11.3461 45.3589 -2.82781
12 1 -10.8576 -12.8606 45.3211 -2.70286
13 1 -9.18614 -11.1621 45.3837 -3.40633
14 1 -9.2372 -13.02 -0.265959 -3.09712
15 1 -11.1864 -11.3679 -0.458183 -3.32795
16 1 -7.44227 -12.8354 45.492 -3.3299
17 1 -5.77834 -10.9407 -2.15632 -3.45594
18 1 -5.40835 -12.7822 -0.310537 -3.44207
19 1 -7.52136 -11.2931 -0.249825 -3.45359
20 1 -4.06586 -12.8531 45.2562 -3.35507
21 1 -1.92589 -12.2188 44.2956 -3.40669
22 1 -2.34366 -13.064 -0.74374 -3.41021
23 1 -3.60799 -11.1028 -0.0873279 -3.41875
24 1 -0.216787 -13.8895 44.2425 -3.40225
25 1 1.91037 -12.8496 44.7293 -3.50716
26 1 1.45003 -14.7184 -1.38296 -3.21059
27 1 0.0250232 -12.7064 -1.3262 -3.41665
28 1 3.85775 -14.7151 44.7364 -3.07104
29 1 5.44114 -12.7527 45.0334 -3.43884
30 1 5.41078 -13.5786 0.10661 -3.21832
31 1 3.5457 -13.141 -1.14447 -3.36476
32 1 7.62384 -13.3842 -1.8746 -3.17894
33 1 9.42079 -11.6378 -1.75405 -3.32928
34 1 9.68536 -12.3349 0.690997 -3.07725
35 1 7.54913 -11.6738 -0.0304644 -3.4078
36 1 11.6966 -12.1668 -1.24406 -2.71456
37 1 13.563 -10.6515 -1.32151 -2.84579
38 1 11.7735 -10.6162 0.56529 -3.2228
39 1 -14.6085 -9.55626 45.1676 -2.72781
40 1 -13.0656 -7.78878 45.4641 -3.42166
41 1 -13.1179 -9.73478 -0.380697 -3.29947
42 1 -14.8875 -8.08516 -0.337972 -3.08185
43 1 -11.2912 -9.41918 45.4652 -3.49282
44 1 -9.44424 -7.72489 45.5796 -3.50692
45 1 -9.41267 -9.60528 -0.316401 -3.51321
46 1 -11.2952 -7.90177 -0.246652 -3.52293
47 1 -7.58444 -9.2853 45.5012 -3.48047
48 1 -5.38755 -8.61148 44.4142 -3.41363
49 1 -5.81044 -9.47732 -0.0831029 -3.45401
50 1 -7.62845 -7.73332 -0.208243 -3.48687
51 1 -3.53383 -10.2201 44.3221 -3.37033
52 1 -1.62147 -8.85452 44.616 -3.47858
53 1 -1.74867 -10.7065 -1.50747 -3.41381
54 1 -3.62817 -8.85237 -1.35741 -3.47987
55 1 0.175055 -10.9339 44.6819 -3.51973
56 1 1.96203 -8.98489 44.9478 -3.49317
57 1 1.9202 -10.9134 -1.101 -3.4542
58 1 0.0386451 -8.93542 -1.22868 -3.52372
59 1 3.62351 -10.9597 44.9617 -3.51
60 1 5.3257 -9.1069 44.9337 -3.49371
61 1 5.29816 -11.0353 -0.902708 -3.49276
62 1 3.50811 -9.04702 -0.809736 -3.45785
63 1 7.18769 -10.9294 45.2116 -3.48305
64 1 8.8523 -9.16884 45.1694 -3.4553
65 1 9.39092 -9.89317 0.0247041 -3.49236
66 1 6.83517 -9.27717 -0.74598 -3.43907
67 1 11.0428 -9.82559 -1.88089 -3.44831
68 1 13.0501 -8.26439 -1.74804 -3.36898
69 1 13.6359 -9.01575 0.766876 -3.30595
70 1 11.2184 -8.21412 0.0996313 -3.46644
71 1 15.2068 -8.81979 -1.18074 -2.73151
72 1 15.2476 -7.1646 1.02722 -3.11026
73 1 -16.539 -4.41929 -1.98608 -2.97844
74 1 -16.527 -6.32683 -0.218694 -2.70455
75 1 -14.9391 -6.16305 45.6464 -3.30676
76 1 -13.218 -4.34494 -1.89998 -3.53325
77 1 -13.1861 -6.26074 -0.17515 -3.52908
78 1 -14.9616 -4.5043 0.0157009 -3.41829
79 1 -11.3221 -5.90671 -2.07304 -3.47679
80 1 -8.93527 -5.30335 45.0296 -3.43806
81 1 -9.48077 -6.06934 -0.129315 -3.52146
82 1 -11.2833 -4.40869 0.00195939 -3.48786
83 1 -7.21098 -6.91201 44.7758 -3.39891
84 1 -5.4288 -5.26276 44.6797 -3.52203
85 1 -5.53378 -7.25605 -1.32111 -3.40539
86 1 -7.14429 -5.45318 -0.987485 -3.42911
87 1 -3.57592 -6.99575 44.7117 -3.46799
88 1 -1.62672 -5.3313 44.9155 -3.47339
89 1 -1.74754 -7.20824 -1.12262 -3.50881
90 1 -3.73066 -5.43279 -0.942515 -3.54399
91 1 0.229442 -7.06194 44.8453 -3.49898
92 1 2.08363 -5.39892 45.1947 -3.42812
93 1 1.90837 -7.2139 -0.940598 -3.48829
94 1 -0.00272709 -5.54963 -0.925105 -3.49759
95 1 3.69018 -7.34367 45.0014 -3.502
96 1 5.41355 -5.32732 45.3429 -3.50741
97 1 5.29931 -7.4547 -0.741638 -3.47866
98 1 3.64545 -5.56481 -0.599057 -3.49858
99 1 7.02978 -7.35934 45.2021 -3.5178
100 1 8.94198 -5.65517 45.2068 -3.49122
101 1 8.78975 -7.65791 -0.548783 -3.50188
102 1 7.03302 -5.55084 -0.485336 -3.52207
103 1 10.7962 -7.40937 45.4566 -3.5307
104 1 12.7115 -5.7222 45.4793 -3.49358
105 1 13.109 -6.66755 0.0762148 -3.45889
106 1 10.5893 -5.82581 -0.345142 -3.50172
107 1 14.9938 -6.43307 -1.51454 -3.36252
108 1 16.7617 -4.62928 -1.33559 -2.94156
109 1 17.3027 -5.35325 1.17719 -2.63109
110 1 14.8959 -4.75739 0.463936 -3.44258
111 1 -16.9598 -0.772243 -1.80582 -2.92907
112 1 -16.7187 -2.60021 0.00198842 -3.01936
113 1 -15.0877 -2.52439 -1.9513 -3.451
114 1 -12.6959 -1.84884 45.1515 -3.50345
115 1 -13.1004 -2.59472 -0.0538909 -3.45868
116 1 -14.9144 -0.914873 0.203688 -3.44576
117 1 -10.8556 -3.67613 45.1535 -3.47494
118 1 -9.15762 -1.91312 45.3077 -3.43651
119 1 -9.12096 -3.71424 -0.800032 -3.42758
120 1 -10.9289 -1.97762 -0.483096 -3.42284
121 1 -7.37696 -3.5576 45.0124 -3.50886
122 1 -5.42735 -1.95714 45.0563 -3.51575
123 1 -5.52163 -3.65568 -0.807621 -3.50004
124 1 -7.32826 -1.94797 -0.643478 -3.48399
125 1 -3.54886 -3.67477 44.9366 -3.50405
126 1 -1.84926 -2.01522 45.2026 -3.48813
127 1 -1.75877 -3.88761 -0.655113 -3.46315
128 1 -3.60315 -2.08462 -0.681815 -3.53495
129 1 0.161093 -3.74587 45.0025 -3.48682
130 1 1.76624 -1.9593 45.2692 -3.49968
131 1 1.87119 -3.84154 -0.642129 -3.46324
132 1 -0.163321 -2.16935 -0.779474 -3.47487
133 1 3.59973 -3.67356 45.1485 -3.44015
134 1 5.49208 -1.97132 45.2908 -3.51641
135 1 5.30173 -3.64172 -0.488609 -3.51604
136 1 3.43614 -2.14625 -0.622357 -3.4123
137 1 7.27846 -3.73607 45.4298 -3.51144
138 1 9.13934 -2.15981 45.4888 -3.49652
139 1 8.98162 -3.90562 -0.332358 -3.52086
140 1 7.30907 -2.09995 -0.350914 -3.47778
141 1 10.8215 -4.06734 -2.26363 -3.49576
142 1 12.5224 -2.18841 -2.06197 -3.51132
143 1 12.4663 -4.13973 -0.273694 -3.53541
144 1 10.8874 -2.2161 -0.230906 -3.49172
145 1 14.4786 -3.91492 -1.88321 -3.48447
146 1 16.2619 -2.2385 -1.7251 -3.16819
147 1 16.6313 -3.12476 0.700377 -3.12625
148 1 14.3088 -2.32793 -0.0548356 -3.47955
149 1 -18.0901 1.6056 43.1628 -2.42103
150 1 -16.3706 1.82593 45.5271 -3.20778
151 1 -16.9178 0.639124 0.194861 -3.10798
152 1 -14.5933 -0.100785 45.4791 -3.50418
153 1 -12.5512 1.56159 45.3642 -3.43608
154 1 -12.6188 -0.2411 -0.555072 -3.50225
155 1 -14.5071 1.51059 -0.358589 -3.48275
156 1 -10.871 -0.190671 45.1467 -3.46536
157 1 -9.05614 1.53668 45.42 -3.50987
158 1 -9.23962 -0.281843 -0.542003 -3.48479
159 1 -10.9374 1.49812 -0.259661 -3.45911
160 1 -7.32069 -0.28078 45.0971 -3.47471
161 1 -5.32022 1.44872 45.2998 -3.47912
162 1 -5.46611 -0.408587 -0.601039 -3.49921
163 1 -7.31647 1.39375 -0.370044 -3.50306
164 1 -3.57579 -0.30152 45.2452 -3.50416
165 1 -1.90188 1.49281 45.2944 -3.49622
166 1 -1.80335 -0.324892 -0.575154 -3.4803
167 1 -3.69533 1.25389 -0.431148 -3.51564
168 1 -0.0532369 -0.208845 45.2398 -3.53292
169 1 1.75348 1.53575 45.47 -3.50946
170 1 1.73863 -0.31958 -0.565577 -3.50224
171 1 -0.171152 1.4112 -0.426491 -3.5044
172 1 3.57849 -0.234068 45.3663 -3.51064
173 1 5.46706 1.43095 45.5033 -3.52885
174 1 5.30869 -0.435403 -0.418306 -3.52772
175 1 3.60466 1.3656 -0.436875 -3.4934
176 1 7.46973 -0.335021 45.6094 -3.49606
177 1 9.08538 1.53562 -2.07721 -3.50104
178 1 9.11158 -0.543053 -0.209245 -3.46615
179 1 7.27028 1.49169 -0.316546 -3.48816
180 1 10.9255 -0.23143 -2.04266 -3.50262
181 1 12.7521 1.35005 -1.89711 -3.5064
182 1 12.7322 -0.425272 0.0275302 -3.49824
183 1 10.9489 1.23542 -0.0464643 -3.51179
184 1 14.5656 -0.485915 -1.86998 -3.53404
185 1 16.326 1.20198 -1.82222 -3.23231
186 1 16.0316 -0.703553 0.288557 -3.26654
187 1 14.5576 1.23775 0.03113 -3.47306
188 1 17.8725 -0.630064 -1.52737 -2.52545
189 1 -16.4455 4.5747 -2.22581 -3.0378
190 1 -16.3941 3.1267 -0.0395523 -3.10207
191 1 -14.3654 3.19255 45.5154 -3.40609
192 1 -12.8013 5.08395 45.5149 -3.40411
193 1 -12.7332 3.1195 -0.368407 -3.45809
194 1 -14.5121 4.80897 -0.196075 -3.47022
195 1 -10.9177 3.27909 45.3847 -3.50324
196 1 -8.97305 5.00812 45.4702 -3.51412
197 1 -9.09184 3.13759 -0.280861 -3.48355
198 1 -10.7268 4.89264 -0.297547 -3.49818
199 1 -7.14536 3.15998 45.4184 -3.50204
200 1 -5.45615 4.94158 45.4007 -3.52086
201 1 -5.50135 3.19229 -0.286338 -3.47421
202 1 -7.16733 4.88136 -0.40398 -3.4834
203 1 -3.65772 3.11449 45.4818 -3.45532
204 1 -1.90199 5.03032 -2.25701 -3.52369
205 1 -1.99453 3.20854 -0.458025 -3.48058
206 1 -3.76852 4.93984 -0.301093 -3.51866
207 1 -0.124805 3.30575 45.2963 -3.5089
208 1 1.78257 4.91833 45.5406 -3.53157
209 1 1.63657 3.16342 -0.376877 -3.5094
210 1 -0.230529 4.80373 -0.236771 -3.46837
211 1 3.64723 3.26283 45.5399 -3.53129
212 1 5.48403 5.21322 -2.05062 -3.47467
213 1 5.3434 3.248 -0.23286 -3.49222
214 1 3.58162 4.9265 -0.233844 -3.51119
215 1 7.31646 3.2884 -1.93697 -3.48137
216 1 9.0885 4.97915 -2.03854 -3.52258
217 1 9.13561 3.2075 -0.0903019 -3.48922
218 1 7.23519 4.93462 -0.144315 -3.51673
219 1 10.9674 3.26332 -1.85257 -3.48495
220 1 12.9407 4.7256 -1.75694 -3.49051
221 1 12.9025 2.87563 0.0669071 -3.45959
222 1 11.0178 4.68263 0.075735 -3.44366
223 1 14.6296 2.95009 -1.7752 -3.44345
224 1 16.4764 4.60101 -1.66393 -2.99581
225 1 16.4303 2.93554 0.172635 -3.13056
226 1 14.5513 4.66096 0.188825 -3.40112
227 1 -16.2522 6.45478 -0.346825 -2.77487
228 1 -14.4107 6.74981 -1.98924 -3.2378
229 1 -12.8235 8.39689 -2.1173 -3.41212
230 1 -12.586 6.47459 -0.225012 -3.48068
231 1 -14.4798 8.22671 -0.0322615 -3.09427
232 1 -10.8322 6.60565 45.4973 -3.50223
233 1 -9.1059 8.33668 45.6454 -3.4635
234 1 -8.89438 6.54808 -0.385173 -3.42385
235 1 -10.8813 8.16764 -0.302029 -3.53548
236 1 -7.20911 6.81542 45.4547 -3.49715
237 1 -5.48036 8.52638 -2.21874 -3.47897
238 1 -5.54011 6.83121 -0.258828 -3.5113
239 1 -7.40659 8.36443 -0.201444 -3.42093
240 1 -3.78022 6.86145 -2.218 -3.50309
241 1 -1.82964 8.45586 45.5812 -3.5193
242 1 -1.85549 6.65818 -0.230126 -3.5225
243 1 -3.57067 8.44319 -0.175036 -3.53882
244 1 -0.0566001 6.70685 45.5832 -3.50801
245 1 1.84546 8.27928 -2.15079 -3.47517
246 1 1.67523 6.58865 -0.322564 -3.50795
247 1 -0.0193395 8.37471 -0.274126 -3.42
248 1 3.58613 6.70925 -2.16955 -3.47722
249 1 5.4433 8.49029 -2.01235 -3.48981
250 1 5.35175 6.6602 -0.0301742 -3.51345
251 1 3.50499 8.33471 -0.134568 -3.53462
252 1 7.20625 6.83946 -2.0047 -3.43307
253 1 9.13552 8.17301 -1.94216 -3.49466
254 1 9.11777 6.58766 0.0102043 -3.51967
255 1 7.18836 8.31772 0.0264348 -3.48926
256 1 11.1445 6.57508 -1.77801 -3.49036
257 1 12.7997 8.21147 -1.91084 -3.39654
258 1 12.8663 6.46652 0.120917 -3.47016
259 1 10.8893 8.25169 0.0383056 -3.47703
260 1 14.6624 6.46438 -1.77548 -3.37751
261 1 16.3835 6.03411 0.466453 -2.6761
262 1 14.699 8.0088 0.221011 -3.07086
263 1 -14.6091 9.8963 -2.11693 -2.66507
264 1 -12.796 11.4635 -2.06799 -2.83342
265 1 -12.6985 10.0177 -0.250256 -3.29965
266 1 -10.8311 9.96483 -2.23551 -3.46076
267 1 -9.2326 11.8003 45.6867 -3.29673
268 1 -9.17858 10.1318 -0.252756 -3.51072
269 1 -10.9527 11.755 -0.146313 -3.30377
270 1 -7.23772 10.2945 -2.17572 -3.49455
271 1 -5.53227 11.8454 -1.89567 -3.46086
272 1 -5.66096 10.0947 -0.083908 -3.4159
273 1 -7.34081 11.8905 -0.0611091 -3.49374
274 1 -3.513 10.2069 -2.07038 -3.50874
275 1 -1.59643 11.808 45.5647 -3.47287
276 1 -1.6094 10.0432 -0.107126 -3.46426
277 1 -3.62579 11.6767 -0.168711 -3.48811
278 1 0.0413933 10.0919 -2.02185 -3.45933
279 1 1.68405 11.9091 -2.11158 -3.51903
280 1 1.65169 10.0958 -0.148691 -3.51192
281 1 0.0673408 11.9211 -0.164507 -3.48136
282 1 3.56621 10.1759 45.8326 -3.47952
283 1 5.614 11.6962 -1.91927 -3.52194
284 1 5.41272 9.89534 -0.0622477 -3.47238
285 1 3.63318 11.7486 -0.131272 -3.43608
286 1 7.38162 10.0176 -1.87274 -3.50732
287 1 9.29834 11.7014 -1.77777 -3.41588
288 1 9.07558 9.9142 0.209995 -3.49274
289 1 7.28612 11.5885 0.0634015 -3.47768
290 1 11.0904 9.85448 -1.88538 -3.4574
291 1 12.8494 11.5495 -1.57106 -2.87115
292 1 12.8472 9.64776 0.152881 -3.32225
293 1 11.0496 11.2952 0.108363 -3.33083
294 1 14.6605 9.81037 -1.65172 -2.68517
295 1 -10.9574 13.1913 45.4034 -2.65804
296 1 -9.21061 13.5251 -0.325863 -3.06784
297 1 -7.42779 13.4839 45.4412 -3.34112
298 1 -5.38406 14.9887 45.6343 -2.98922
299 1 -5.40835 13.5981 -0.0302259 -3.31165
300 1 -7.21744 14.994 -0.204643 -2.68658
301 1 -3.57679 13.373 -2.27017 -3.3888
302 1 -2.10583 15.1763 45.585 -2.99126
303 1 -1.779 13.4586 -0.126728 -3.4328
304 1 -3.64701 15.1967 -0.246937 -2.9526
305 1 -0.0156488 13.8207 45.6422 -3.51259
306 1 2.11376 15.5139 45.5862 -2.98644
307 1 1.96126 13.4338 -0.0714842 -3.4308
308 1 0.0555962 15.0462 0.0408309 -3.14424
309 1 3.71424 13.5383 -1.94916 -3.47596
310 1 5.5565 15.09 -1.94895 -3.01765
311 1 5.4223 13.3816 0.00608912 -3.43266
312 1 3.68662 15.2861 -0.0600007 -3.01773
313 1 7.40488 13.4333 -1.8409 -3.35694
314 1 9.13188 13.144 0.285184 -3.1363
315 1 7.15187 14.9934 0.0774206 -2.72413
316 1 10.9648 13.2646 -1.52812 -2.65458
317 1 -0.0152985 16.4432 -1.8779 -2.48593
318 1 -5.38523 -14.6004 1.50436 -3.08175
319 1 -7.28769 -14.737 3.29362 -2.70862
320 1 -2.51973 -15.1534 1.13303 -2.929
321 1 -3.67284 -14.7578 3.33707 -2.90744
322 1 0.83707 -15.351 0.959989 -2.98291
323 1 2.5711 -15.654 2.6996 -2.51363
324 1 -0.818002 -15.3159 2.72957 -2.77493
325 1 5.92764 -13.9337 2.57818 -2.98926
326 1 3.82024 -14.0564 4.49483 -3.05089
327 1 7.85678 -13.8539 4.38616 -2.70301
328 1 -13.0435 -11.4654 1.44894 -2.80621
329 1 -10.9076 -13.0608 1.65276 -2.71612
330 1 -9.25207 -11.2417 1.58854 -3.4347
331 1 -9.16701 -13.1688 3.4196 -3.09706
332 1 -11.2686 -11.4018 3.41047 -3.26037
333 1 -7.45858 -13.09 1.52616 -3.3234
334 1 -5.41366 -11.3317 1.81465 -3.46534
335 1 -5.75806 -12.991 3.5457 -3.36664
336 1 -7.55418 -11.2304 3.61066 -3.47795
337 1 -3.53451 -12.9803 1.63586 -3.46329
338 1 -1.89721 -11.0974 2.00254 -3.41407
339 1 -1.88802 -13.2291 3.66676 -3.31946
340 1 -3.75552 -11.3238 3.57204 -3.43957
341 1 -0.731467 -13.2731 1.21866 -3.534
342 1 1.61098 -12.9952 0.460793 -3.46171
343 1 1.12478 -13.7126 2.86242 -3.34284
344 1 -0.196515 -11.6491 3.97002 -3.39097
345 1 3.54791 -13.3506 2.01768 -3.27253
346 1 5.52919 -11.7471 1.65879 -3.43516
347 1 5.83355 -12.2853 4.44194 -3.44565
348 1 3.5282 -11.6444 3.48791 -3.31434
349 1 7.81791 -12.2473 2.42783 -3.36772
350 1 9.53868 -10.3769 2.75183 -3.32314
351 1 9.71914 -12.2772 4.40194 -3.06786
352 1 7.84664 -10.7575 4.61774 -3.49132
353 1 11.4536 -11.7541 2.54702 -2.81157
354 1 13.6045 -10.5256 2.72804 -2.81579
355 1 11.7762 -10.8524 4.71569 -3.16439
356 1 -14.6472 -9.80466 1.4788 -2.67496
357 1 -13.0588 -8.12228 1.59798 -3.41404
358 1 -13.1953 -9.90478 3.4926 -3.30962
359 1 -14.9579 -8.17502 3.61863 -3.0795
360 1 -11.2247 -9.77227 1.53167 -3.49269
361 1 -9.38806 -8.02108 1.73231 -3.47964
362 1 -9.45042 -9.54445 3.50985 -3.46168
363 1 -11.4278 -8.07501 3.56814 -3.48409
364 1 -7.42886 -9.69987 1.68315 -3.44203
365 1 -5.68197 -7.89672 1.94614 -3.46019
366 1 -5.64525 -9.72112 3.82401 -3.43148
367 1 -7.44728 -8.01813 3.78651 -3.49537
368 1 -3.71392 -9.60995 1.92596 -3.42145
369 1 -1.75699 -9.10111 0.487411 -3.46648
370 1 -1.99593 -9.58551 3.98021 -3.50634
371 1 -3.94732 -7.94774 4.08455 -3.52854
372 1 -0.0747621 -11.0201 0.371128 -3.43131
373 1 1.66421 -9.36496 0.780361 -3.49748
374 1 1.3668 -11.3784 2.34083 -3.39472
375 1 -0.15787 -9.42857 2.36111 -3.46514
376 1 3.38669 -11.2671 0.737631 -3.49535
377 1 5.11943 -9.35551 1.0166 -3.46139
378 1 5.57253 -10.0794 3.501 -3.46643
379 1 3.37571 -9.46662 2.60909 -3.42687
380 1 7.40284 -9.92199 1.63826 -3.43811
381 1 9.38542 -8.17716 1.81762 -3.42916
382 1 9.90515 -8.9637 4.60379 -3.47235
383 1 7.41157 -8.42777 3.68017 -3.53079
384 1 11.6092 -9.16329 2.8284 -3.47944
385 1 13.3734 -7.40505 2.80154 -3.44139
386 1 13.3522 -9.14159 4.67357 -3.2598
387 1 11.7241 -7.24694 4.67229 -3.47116
388 1 15.3595 -8.74777 2.77599 -2.68738
389 1 15.2791 -7.32176 4.89766 -3.06791
390 1 -16.6059 -4.56004 1.7338 -2.99718
391 1 -16.6962 -6.28766 3.64214 -2.72316
392 1 -14.866 -6.44355 1.78287 -3.39854
393 1 -13.1319 -4.55588 1.75995 -3.49605
394 1 -13.2048 -6.37057 3.81692 -3.46307
395 1 -14.8763 -4.62825 3.7052 -3.42435
396 1 -11.3988 -6.21411 1.80815 -3.44318
397 1 -9.65971 -4.62126 1.9386 -3.464
398 1 -9.4419 -6.51432 3.70487 -3.51083
399 1 -11.3602 -4.75582 3.72457 -3.49345
400 1 -7.66956 -6.20694 1.97075 -3.42965
401 1 -5.62169 -5.67979 0.916108 -3.43779
402 1 -5.75735 -6.17616 4.1331 -3.47205
403 1 -7.58365 -4.6736 3.84889 -3.42403
404 1 -3.75221 -7.32192 0.637506 -3.43233
405 1 -1.8705 -5.84685 0.929545 -3.44689
406 1 -2.05276 -7.69934 2.40445 -3.4571
407 1 -3.70388 -5.77153 2.64629 -3.47386
408 1 -0.000510032 -7.44572 0.801126 -3.51285
409 1 1.83802 -5.56748 1.22043 -3.50698
410 1 1.77292 -7.59161 2.74099 -3.47494
411 1 -0.199559 -5.86358 2.70958 -3.51092
412 1 3.554 -7.44818 1.01923 -3.47803
413 1 5.29939 -5.76776 1.40113 -3.47835
414 1 5.17996 -7.61445 2.94267 -3.50628
415 1 3.34484 -5.87331 3.15712 -3.47647
416 1 7.081 -7.59292 1.22578 -3.48739
417 1 8.71766 -5.80398 1.40208 -3.49006
418 1 9.42607 -6.65481 3.81526 -3.48715
419 1 6.93442 -5.8491 3.18005 -3.51578
420 1 11.2359 -6.56908 1.93849 -3.48096
421 1 13.2673 -5.0522 2.21787 -3.49108
422 1 13.5971 -5.5839 4.71929 -3.48882
423 1 11.1899 -4.91945 4.01992 -3.49367
424 1 15.5964 -5.64382 3.05361 -3.30434
425 1 17.197 -3.83709 3.05977 -2.96054
426 1 16.952 -5.48655 4.9365 -2.74058
427 1 15.3544 -3.63991 4.87155 -3.42819
428 1 -16.5772 -1.18611 1.96196 -3.09415
429 1 -16.6233 -2.94818 3.89766 -3.04372
430 1 -14.8191 -2.8246 1.92296 -3.43903
431 1 -13.1224 -1.01977 1.92979 -3.45134
432 1 -13.2262 -2.93912 3.83878 -3.46749
433 1 -14.8631 -1.26343 4.03335 -3.4575
434 1 -11.4322 -2.76391 1.87777 -3.49784
435 1 -9.07079 -2.09992 1.47806 -3.50303
436 1 -9.66967 -2.90934 3.92094 -3.49519
437 1 -11.439 -1.16425 3.90318 -3.5008
438 1 -7.48129 -3.83808 0.967902 -3.4602
439 1 -5.62125 -2.22633 1.20225 -3.50708
440 1 -5.43385 -4.07613 2.75593 -3.41362
441 1 -7.33584 -2.39317 3.23371 -3.44529
442 1 -3.716 -3.90079 1.02916 -3.51983
443 1 -1.85636 -2.1334 1.23042 -3.49686
444 1 -1.87562 -4.06458 3.00037 -3.48574
445 1 -3.70744 -2.31761 3.05839 -3.5058
446 1 -0.149787 -3.84792 1.21283 -3.49526
447 1 1.72421 -2.15976 1.18866 -3.5134
448 1 1.61568 -3.98507 3.10722 -3.55278
449 1 -0.275698 -2.16079 3.16784 -3.50164
450 1 3.61514 -3.95063 1.41847 -3.479
451 1 5.2639 -2.0579 1.48428 -3.47422
452 1 5.10757 -3.96955 3.25362 -3.48265
453 1 3.48283 -2.18256 3.27511 -3.49574
454 1 7.03312 -3.9882 1.37912 -3.5148
455 1 9.00105 -2.30125 1.70947 -3.49492
456 1 8.81959 -4.37434 3.42485 -3.43542
457 1 7.10514 -2.41863 3.39613 -3.53576
458 1 10.6786 -4.09838 1.66732 -3.51782
459 1 12.524 -2.42079 1.64266 -3.50074
460 1 13.0534 -3.29355 4.11918 -3.46992
461 1 10.5866 -2.44349 3.71377 -3.48853
462 1 14.8018 -3.05431 2.44637 -3.49663
463 1 16.5418 -1.36731 2.57579 -3.16003
464 1 17.2694 -2.15123 5.03542 -2.9873
465 1 14.7946 -1.29241 4.36764 -3.50712
466 1 -18.3274 0.304481 2.37556 -2.48857
467 1 -16.9267 2.34908 2.30523 -3.18473
468 1 -16.5664 0.581027 4.17132 -3.24409
469 1 -15.0136 0.726548 2.26393 -3.50336
470 1 -12.661 1.36969 1.59484 -3.518
471 1 -13.2925 0.67392 4.16469 -3.50743
472 1 -15.0794 2.52293 4.1825 -3.47522
473 1 -10.9272 -0.370266 1.47844 -3.46138
474 1 -9.06902 1.39185 1.54368 -3.46393
475 1 -9.15434 -0.523881 3.43418 -3.48536
476 1 -10.821 1.23759 3.48926 -3.50576
477 1 -7.25055 -0.189498 1.53077 -3.3891
478 1 -5.47995 1.22275 1.44888 -3.41946
479 1 -5.4715 -0.526235 3.20846 -3.49753
480 1 -7.1802 1.25975 3.53916 -3.48085
481 1 -3.76036 -0.494677 1.4086 -3.49707
482 1 -1.98345 1.26356 1.54322 -3.49792
483 1 -2.1142 -0.44447 3.35404 -3.49155
484 1 -3.77727 1.376 3.38686 -3.46349
485 1 -0.14948 -0.391883 1.46684 -3.49168
486 1 1.69016 1.4799 1.5905 -3.47574
487 1 1.71731 -0.462905 3.42836 -3.46935
488 1 -0.272746 1.25542 3.35894 -3.51914
489 1 3.40893 -0.310929 1.39497 -3.50925
490 1 5.43835 1.3958 1.46066 -3.49802
491 1 5.3424 -0.547647 3.36096 -3.48062
492 1 3.4089 1.20841 3.344 -3.49541
493 1 7.12861 -0.465693 1.68786 -3.48222
494 1 8.96116 1.27167 1.63105 -3.51185
495 1 9.0098 -0.732474 3.63079 -3.45012
496 1 7.02281 1.24277 3.50744 -3.45603
497 1 10.7308 -0.603406 1.68698 -3.50263
498 1 12.5788 1.18447 2.005 -3.47923
499 1 12.4424 -0.738929 3.63799 -3.50163
500 1 10.779 0.983996 3.69032 -3.46221
501 1 14.2307 -0.559245 1.90334 -3.45882
502 1 16.1567 1.0801 2.23241 -3.22582
503 1 16.7289 0.355137 4.68639 -3.09653
504 1 14.3775 1.12296 3.89886 -3.47241
505 1 17.708 0.900291 0.352773 -2.57551
506 1 -16.3028 4.87047 1.70902 -3.0608
507 1 -16.8777 4.21106 4.41055 -3.07322
508 1 -14.5268 3.08238 1.8115 -3.47455
509 1 -12.5023 4.77332 1.73927 -3.49065
510 1 -12.7891 3.15425 3.568 -3.48166
511 1 -14.5292 4.85443 3.58166 -3.4063
512 1 -10.7671 3.06472 1.62433 -3.45232
513 1 -9.10659 4.84598 1.68602 -3.51336
514 1 -8.94338 2.92698 3.51485 -3.48581
515 1 -10.8984 4.77391 3.69745 -3.48953
516 1 -7.26453 3.06942 1.49584 -3.5386
517 1 -5.45098 4.82 1.65515 -3.48885
518 1 -5.50821 3.05255 3.49765 -3.51211
519 1 -7.36707 4.77125 3.62436 -3.49642
520 1 -3.78724 3.01524 1.69416 -3.45138
521 1 -1.91148 4.93941 1.63174 -3.49008
522 1 -2.03246 3.09109 3.38177 -3.47902
523 1 -3.63581 4.82228 3.64131 -3.49924
524 1 -0.314631 3.09419 1.49571 -3.48915
525 1 1.71138 4.74932 1.51591 -3.51334
526 1 1.56012 3.08336 3.35016 -3.48063
527 1 -0.184237 4.88848 3.56561 -3.49969
528 1 3.63304 3.02622 1.52033 -3.49893
529 1 5.46203 4.78349 1.73401 -3.53097
530 1 5.3724 2.87177 3.46358 -3.45432
531 1 3.4101 4.67915 3.40912 -3.50001
532 1 7.23753 3.05108 1.57246 -3.48285
533 1 9.03069 4.68894 1.89734 -3.48739
534 1 9.15402 2.8669 3.50481 -3.45554
535 1 7.2038 4.62533 3.70673 -3.51087
536 1 10.8533 2.93771 1.79072 -3.47433
537 1 12.6498 4.73617 1.91531 -3.48177
538 1 12.6534 2.78356 3.92684 -3.48529
539 1 10.9017 4.64186 3.89419 -3.50809
540 1 14.4936 2.93694 2.0193 -3.51419
541 1 16.416 4.64369 2.459 -2.882
542 1 16.1171 2.91722 4.11689 -3.09145
543 1 14.3592 4.49529 4.11704 -3.38726
544 1 -16.1539 6.52978 3.75126 -2.83595
545 1 -14.6016 6.58117 1.75424 -3.34887
546 1 -12.6656 8.19084 1.70119 -3.44226
547 1 -12.7019 6.42761 3.60473 -3.50222
548 1 -14.4548 8.24843 3.67527 -3.13297
549 1 -10.8694 6.55277 1.72727 -3.46801
550 1 -9.11462 8.31595 1.52318 -3.48567
551 1 -9.12447 6.67854 3.65894 -3.51135
552 1 -11.053 8.2991 3.50648 -3.48203
553 1 -7.19791 6.52816 1.70254 -3.51073
554 1 -5.48908 8.24097 1.78003 -3.49639
555 1 -5.51396 6.54625 3.70925 -3.52229
556 1 -7.24651 8.37038 3.64671 -3.49274
557 1 -3.6397 6.57599 1.66632 -3.48026
558 1 -1.83293 8.29651 1.72501 -3.513
559 1 -1.87929 6.60042 3.55354 -3.5081
560 1 -3.69734 8.36411 3.59945 -3.51594
561 1 0.0154187 6.65445 1.49788 -3.50686
562 1 1.81506 8.31579 1.78332 -3.49437
563 1 1.70035 6.46789 3.52374 -3.48492
564 1 0.0926785 8.20048 3.44921 -3.4552
565 1 3.421 6.48321 1.68883 -3.4969
566 1 5.25132 8.23377 1.82802 -3.49834
567 1 5.28287 6.50246 3.51582 -3.51883
568 1 3.56042 8.30776 3.6557 -3.51574
569 1 7.23911 6.52359 1.81038 -3.52477
570 1 9.05246 8.20373 2.03357 -3.49457
571 1 9.00703 6.32434 3.83616 -3.50117
572 1 7.15584 8.17982 3.76851 -3.49388
573 1 10.9202 6.35943 1.99173 -3.49758
574 1 12.7405 8.02795 1.965 -3.37936
575 1 12.7098 6.20171 4.07198 -3.4887
576 1 10.772 7.9864 4.04682 -3.49752
577 1 14.6249 6.31104 2.38905 -3.36323
578 1 16.2074 6.17539 4.44374 -2.7458
579 1 14.581 8.16895 4.2468 -3.07298
580 1 -14.4823 9.78109 1.69218 -2.71153
581 1 -12.6138 11.7058 1.70849 -2.83697
582 1 -12.8186 10.0716 3.6166 -3.28643
583 1 -10.9568 9.98374 1.6006 -3.46646
584 1 -9.15944 11.742 1.77056 -3.45722
585 1 -9.12998 9.95883 3.51778 -3.48967
586 1 -10.9756 12.0028 3.539 -3.27663
587 1 -7.41151 9.98367 1.70985 -3.48056
588 1 -5.55354 11.7258 1.47939 -3.32312
589 1 -5.51625 10.1679 3.61575 -3.5296
590 1 -7.47375 11.726 3.65594 -3.47306
591 1 -3.67177 10.1625 1.73113 -3.52673
592 1 -1.68456 11.8104 1.62901 -3.4326
593 1 -1.81617 9.87826 3.63339 -3.46433
594 1 -3.43441 11.6682 3.82034 -3.47467
595 1 -0.0153255 10.0703 1.72358 -3.49054
596 1 1.85125 11.7254 1.89167 -3.46861
597 1 1.74387 10.074 3.66747 -3.49552
598 1 -0.115571 11.6765 3.71579 -3.50234
599 1 3.58488 10.1309 1.70634 -3.49033
600 1 5.51294 11.6965 1.78716 -3.42097
601 1 5.43365 9.89414 3.88155 -3.48175
602 1 3.73333 11.7065 3.93084 -3.46925
603 1 7.16656 9.90759 1.97593 -3.52806
604 1 9.07193 11.5088 2.24031 -3.44807
605 1 9.03708 9.75972 3.97235 -3.48076
606 1 7.27097 11.6395 4.00403 -3.48463
607 1 10.9493 9.69916 2.01248 -3.47082
608 1 12.6686 11.3562 2.21261 -2.81887
609 1 12.632 9.55633 4.03001 -3.26255
610 1 10.8799 11.3308 4.01822 -3.24783
611 1 14.3683 9.66739 2.26695 -2.69938
612 1 -10.6106 13.6588 1.65819 -2.68802
613 1 -9.02196 13.8179 3.69603 -2.99651
614 1 -7.39626 13.6011 1.74768 -3.34362
615 1 -5.37371 15.2178 1.94938 -2.92167
616 1 -5.37368 13.1787 3.47771 -3.44928
617 1 -6.73234 15.2682 3.81173 -2.6768
618 1 -3.5926 13.3402 1.6751 -3.46062
619 1 -2.0645 15.2562 1.97546 -3.04579
620 1 -1.80433 13.5233 3.7558 -3.4246
621 1 -3.76118 14.9773 3.90406 -3.05901
622 1 -0.0145987 13.5477 1.98922 -3.50625
623 1 1.97966 15.1936 1.77028 -3.11614
624 1 1.94914 13.4424 3.72635 -3.4792
625 1 0.105948 15.2718 3.96069 -3.14442
626 1 3.65279 13.3958 1.88078 -3.46831
627 1 5.38676 15.113 1.79792 -3.00375
628 1 5.49099 13.3834 3.76504 -3.45266
629 1 3.69937 15.2715 3.71731 -2.98741
630 1 7.2476 13.1781 1.96172 -3.30458
631 1 9.16712 13.3439 3.89063 -2.9784
632 1 7.2844 15.0207 3.62507 -2.62598
633 1 11.017 12.98 2.17909 -2.6825
634 1 -0.0602464 16.6141 1.97642 -2.37403
635 1 -5.80791 -14.7501 5.2838 -2.82176
636 1 -7.50653 -14.8717 7.06257 -2.59221
637 1 -1.64168 -13.8498 6.6886 -2.98461
638 1 -3.45954 -14.1811 8.43013 -2.94439
639 1 -0.014222 -14.0138 5.01585 -3.01447
640 1 2.17313 -14.1979 6.76904 -2.91316
641 1 0.194988 -14.3683 8.31539 -3.04052
642 1 5.82367 -13.9589 6.30926 -2.95672
643 1 4.14887 -14.0809 8.44295 -3.01896
644 1 7.36664 -14.2632 8.48757 -2.63614
645 1 -13.1494 -11.3529 5.64414 -2.85774
646 1 -11.1116 -12.7766 5.34438 -2.79081
647 1 -9.23123 -11.2852 5.47616 -3.44343
648 1 -9.36733 -13.1608 7.13062 -3.0485
649 1 -11.0573 -11.2806 7.29134 -3.37714
650 1 -7.56652 -13.1733 5.24214 -3.27904
651 1 -5.42866 -11.657 5.46439 -3.46093
652 1 -5.56438 -13.4108 7.37053 -3.27091
653 1 -7.40076 -11.8216 7.27679 -3.48884
654 1 -3.87954 -13.3814 5.43857 -3.22085
655 1 -2.0494 -11.5649 5.62692 -3.49104
656 1 -1.48303 -12.4489 8.64047 -3.40791
657 1 -3.76946 -11.8168 7.57969 -3.50303
658 1 0.1605 -12.1658 6.7229 -3.4366
659 1 1.92032 -12.2567 5.09701 -3.39103
660 1 2.02727 -12.3997 8.4235 -3.48734
661 1 0.283741 -10.4871 8.74539 -3.45613
662 1 4.00604 -12.4423 6.58203 -3.40758
663 1 6.12163 -10.8368 6.55262 -3.48036
664 1 5.91847 -12.3927 8.45533 -3.40408
665 1 3.94978 -10.6262 8.29587 -3.51647
666 1 7.94142 -12.5258 6.35778 -3.2837
667 1 9.56229 -10.6821 6.56857 -3.42616
668 1 9.43835 -12.7373 8.64912 -3.01365
669 1 7.83114 -10.6311 8.51235 -3.50732
670 1 10.8527 -12.5469 6.43141 -2.69621
671 1 12.7699 -10.9587 6.85326 -2.82065
672 1 11.1066 -10.7562 8.59534 -3.28525
673 1 -15.0145 -9.74863 5.38121 -2.676
674 1 -13.1514 -8.29553 5.62169 -3.43472
675 1 -13.2013 -9.83902 7.42662 -3.22521
676 1 -14.9596 -8.18839 7.54446 -3.0912
677 1 -11.1453 -9.75664 5.33994 -3.482
678 1 -9.09462 -8.10128 5.60404 -3.49607
679 1 -9.1891 -9.74506 7.53903 -3.40793
680 1 -11.1774 -8.32674 7.42783 -3.52679
681 1 -7.21915 -9.775 5.56288 -3.42582
682 1 -5.65099 -7.89946 5.97638 -3.46163
683 1 -5.63045 -9.91093 7.51034 -3.51758
684 1 -7.44727 -8.13899 7.57991 -3.44821
685 1 -3.71443 -9.64627 5.96444 -3.44455
686 1 -1.98257 -8.10756 6.09294 -3.43576
687 1 -2.06689 -10.0686 7.89086 -3.53864
688 1 -3.93524 -8.10669 7.82974 -3.4731
689 1 -0.349484 -9.83502 6.07109 -3.47337
690 1 1.58341 -9.75301 4.2738 -3.5799
691 1 2.01823 -10.2591 6.86661 -3.45839
692 1 -0.255121 -8.26923 8.09897 -3.44894
693 1 4.03023 -10.1132 5.51826 -3.38778
694 1 5.65062 -8.37839 5.31627 -3.38845
695 1 5.89285 -8.98061 8.31401 -3.52531
696 1 3.83968 -8.43329 7.14547 -3.38482
697 1 7.7367 -8.91276 6.39182 -3.43607
698 1 9.5764 -7.44989 6.56809 -3.39968
699 1 9.64544 -8.89079 8.40588 -3.42027
700 1 7.6853 -7.26259 8.37628 -3.50847
701 1 11.5071 -8.98172 6.62915 -3.42646
702 1 13.241 -7.43645 6.63735 -3.42071
703 1 12.8857 -9.13905 8.6206 -3.31628
704 1 11.4218 -7.28536 8.63612 -3.4581
705 1 14.6721 -9.35977 6.81336 -2.69751
706 1 15.0017 -7.60049 8.67 -3.09244
707 1 -16.6232 -4.76256 5.60485 -2.97704
708 1 -16.8588 -6.38674 7.50736 -2.6912
709 1 -15.0514 -6.64187 5.57876 -3.37379
710 1 -13.1605 -4.85362 5.6975 -3.5215
711 1 -13.2216 -6.56217 7.59703 -3.51203
712 1 -15.0381 -4.82562 7.67022 -3.44924
713 1 -11.3315 -6.63431 5.65708 -3.51832
714 1 -9.57197 -4.83066 5.65284 -3.47734
715 1 -9.30829 -6.54028 7.53417 -3.4919
716 1 -11.256 -4.8489 7.54734 -3.46645
717 1 -7.59141 -6.14394 5.88125 -3.41091
718 1 -5.77315 -4.58387 6.08098 -3.46297
719 1 -5.73323 -6.25144 7.78633 -3.47634
720 1 -7.61691 -4.7248 7.84614 -3.45938
721 1 -3.8738 -6.27013 6.1273 -3.51595
722 1 -1.96482 -6.18323 4.542 -3.53467
723 1 -2.09246 -6.49758 8.08862 -3.49908
724 1 -3.83164 -4.60653 8.12245 -3.47978
725 1 -0.179739 -7.8416 4.42007 -3.49804
726 1 1.43714 -6.02181 4.62639 -3.47635
727 1 1.35333 -7.9977 6.4282 -3.41766
728 1 -0.243458 -6.27273 6.53017 -3.47031
729 1 3.38793 -7.87964 4.65031 -3.52374
730 1 5.12228 -5.98788 4.98903 -3.52274
731 1 5.5532 -6.65509 7.29132 -3.44529
732 1 3.13846 -6.12206 6.52811 -3.51667
733 1 7.46075 -6.60833 5.65163 -3.4873
734 1 9.21036 -4.94261 5.67499 -3.42871
735 1 9.4999 -5.64854 8.3101 -3.49844
736 1 7.32881 -4.74238 7.58829 -3.46195
737 1 11.5267 -5.62827 6.5725 -3.48009
738 1 13.4709 -4.03766 6.71265 -3.44654
739 1 13.2709 -5.73257 8.54991 -3.44697
740 1 11.4684 -4.17854 8.4832 -3.4652
741 1 15.106 -5.64023 6.68281 -3.29893