ITEM: TIMESTEP
64000
ITEM: NUMBER OF ATOMS
3804
ITEM: BOX BOUNDS ss ss pp
-1.7740673165578585e+01 1.7653990176508980e+01
-1.7736383925196659e+01 1.7616149369322777e+01
-1.3881600000000001e+00 4.4768160000000002e+01
ITEM: ATOMS id type x y z c_peratom
1 1 -5.30824 -15.9334 44.7648 -2.99782
2 1 -6.96821 -15.8495 0.562914 -2.7305
3 1 -1.76566 -15.8623 44.7115 -3.08971
4 1 -3.45211 -16.0526 0.442366 -3.02339
5 1 -0.0669993 -17.3676 44.8324 -2.38969
6 1 1.94266 -15.9568 44.7251 -3.10255
7 1 -0.0713727 -15.9094 0.710146 -3.21778
8 1 5.31701 -15.8544 -1.40314 -2.99806
9 1 3.67779 -15.8361 0.623123 -3.03401
10 1 6.94947 -15.9463 0.567915 -2.70984
11 1 -12.2272 -12.4537 -1.30046 -2.87039
12 1 -10.4078 -14.1643 44.8813 -2.7404
13 1 -8.76774 -12.354 44.8683 -3.47438
14 1 -8.81905 -14.298 0.597134 -3.07689
15 1 -10.5892 -12.3898 0.654188 -3.3441
16 1 -7.15747 -14.2712 -1.31524 -3.35753
17 1 -5.43665 -12.4975 44.9616 -3.49063
18 1 -5.20775 -14.2103 0.568143 -3.44341
19 1 -7.20441 -12.4047 0.615479 -3.52096
20 1 -3.58894 -14.2286 44.7114 -3.4391
21 1 -1.73163 -12.4233 44.813 -3.5526
22 1 -1.77819 -14.2469 0.571265 -3.45447
23 1 -3.49171 -12.4789 0.627939 -3.49555
24 1 0.0382721 -14.2205 44.8431 -3.49369
25 1 1.53402 -12.3717 44.9391 -3.49044
26 1 1.63147 -14.1988 0.634584 -3.46673
27 1 -0.138803 -12.4719 0.72191 -3.49986
28 1 3.48457 -14.084 44.9066 -3.47875
29 1 5.29923 -12.3279 -1.29155 -3.50249
30 1 5.24966 -14.0964 0.526404 -3.42393
31 1 3.47409 -12.4286 0.62855 -3.47028
32 1 7.07023 -14.2194 -1.37395 -3.32397
33 1 8.7849 -12.3709 -1.40865 -3.45613
34 1 8.7361 -14.1126 0.474765 -3.12607
35 1 7.06286 -12.3954 0.534152 -3.49217
36 1 10.5125 -14.1407 -1.33518 -2.71804
37 1 12.5016 -12.4718 -1.34182 -2.7945
38 1 10.6935 -12.4741 0.514376 -3.3239
39 1 -13.9173 -10.6919 -1.43754 -2.68118
40 1 -12.2218 -8.88558 -1.44626 -3.46438
41 1 -12.5319 -10.6663 0.552029 -3.28574
42 1 -14.1088 -8.58032 0.604355 -3.07985
43 1 -10.5455 -10.6926 -1.25296 -3.43249
44 1 -8.80906 -9.10825 44.8506 -3.45789
45 1 -8.91976 -10.6368 0.596493 -3.47432
46 1 -10.7502 -8.81149 0.599945 -3.51226
47 1 -6.99847 -10.7057 44.8771 -3.45465
48 1 -5.30809 -8.94644 44.7474 -3.47679
49 1 -5.26258 -10.6745 0.673411 -3.52417
50 1 -6.98345 -8.93479 0.512195 -3.47521
51 1 -3.61353 -10.6764 -1.25334 -3.53128
52 1 -1.85658 -8.84829 44.7586 -3.49212
53 1 -1.73883 -10.4881 0.591 -3.50434
54 1 -3.55177 -8.77423 0.554992 -3.49411
55 1 -0.0132929 -10.4672 44.8881 -3.50392
56 1 1.80081 -8.71542 -1.27841 -3.47787
57 1 1.83905 -10.6105 0.604777 -3.50129
58 1 -0.00346716 -8.7764 0.567599 -3.46848
59 1 3.46816 -10.6372 44.8442 -3.50179
60 1 5.27382 -8.8448 44.7256 -3.53914
61 1 5.34654 -10.6217 0.457065 -3.4875
62 1 3.46146 -8.84549 0.427695 -3.48131
63 1 7.0942 -10.6063 -1.37475 -3.45487
64 1 8.84195 -8.94244 -1.45572 -3.49538
65 1 8.95433 -10.6926 0.548077 -3.54088
66 1 7.00968 -8.88028 0.612493 -3.49211
67 1 10.7783 -10.6861 -1.3317 -3.51828
68 1 12.4558 -8.78721 -1.50669 -3.43654
69 1 12.5041 -10.5953 0.579298 -3.35082
70 1 10.5931 -8.78953 0.485234 -3.45554
71 1 14.1807 -10.4385 44.7911 -2.73291
72 1 14.2905 -8.8872 0.548546 -3.09182
73 1 -15.6152 -5.15076 44.7142 -2.98738
74 1 -15.902 -6.8753 0.613786 -2.67311
75 1 -14.1719 -7.17856 -1.33425 -3.32983
76 1 -12.2861 -5.4297 44.8409 -3.54109
77 1 -12.2802 -6.95948 0.617223 -3.41418
78 1 -13.9627 -5.25436 0.559884 -3.44561
79 1 -10.3472 -7.13471 44.6605 -3.45401
80 1 -8.84805 -5.27998 44.7683 -3.47582
81 1 -8.74173 -7.01282 0.534318 -3.50413
82 1 -10.457 -5.31182 0.543384 -3.4821
83 1 -7.07419 -7.25406 44.8493 -3.52161
84 1 -5.2721 -5.40199 44.8192 -3.51148
85 1 -5.3647 -7.15787 0.611272 -3.48101
86 1 -6.95067 -5.30222 0.735128 -3.44255
87 1 -3.64102 -7.18909 44.7305 -3.46445
88 1 -1.93183 -5.36585 44.8902 -3.51636
89 1 -1.77806 -7.16953 0.60724 -3.48756
90 1 -3.62555 -5.3769 0.561131 -3.54076
91 1 -0.0312818 -7.06257 -1.33222 -3.53365
92 1 1.8283 -5.20601 44.8289 -3.50659
93 1 1.71762 -7.09432 0.661882 -3.47662
94 1 -0.0841293 -5.24186 0.620646 -3.52189
95 1 3.57922 -7.00746 -1.50374 -3.43424
96 1 5.20706 -5.29518 -1.29032 -3.48561
97 1 5.19709 -7.06005 0.477469 -3.49811
98 1 3.42486 -5.384 0.675163 -3.48761
99 1 7.11809 -7.078 -1.49985 -3.48134
100 1 8.88394 -5.38811 -1.38699 -3.50098
101 1 8.89053 -7.22883 0.456646 -3.46798
102 1 6.95942 -5.31719 0.5566 -3.50535
103 1 10.6984 -7.03774 44.6822 -3.50279
104 1 12.4214 -5.31455 44.8461 -3.51496
105 1 12.4329 -7.22467 0.51056 -3.49875
106 1 10.7303 -5.40104 0.534439 -3.52106
107 1 14.2607 -7.10403 44.7304 -3.3646
108 1 15.9187 -5.12055 -1.2921 -2.99216
109 1 15.8799 -6.92189 0.526862 -2.76013
110 1 14.0352 -5.32892 0.639051 -3.42102
111 1 -15.5838 -1.63103 -1.4121 -3.11358
112 1 -15.8554 -3.5313 0.457767 -2.9959
113 1 -13.9464 -3.49566 -1.16016 -3.40331
114 1 -12.3871 -1.59619 -1.24993 -3.47398
115 1 -12.2319 -3.54782 0.781258 -3.46214
116 1 -14.0441 -1.68152 0.686405 -3.50744
117 1 -10.6164 -3.43774 44.8606 -3.53115
118 1 -8.67552 -1.76856 44.8351 -3.53736
119 1 -8.68956 -3.53044 0.644069 -3.51727
120 1 -10.5336 -1.64867 0.592217 -3.52941
121 1 -6.9857 -3.60081 44.7552 -3.48486
122 1 -5.3503 -1.81977 -1.28046 -3.50035
123 1 -5.33233 -3.56685 0.593178 -3.48941
124 1 -7.03144 -1.63232 0.658958 -3.48178
125 1 -3.59359 -3.54823 44.8445 -3.51517
126 1 -1.74342 -1.8414 -1.30188 -3.50582
127 1 -1.81457 -3.57448 0.565491 -3.48613
128 1 -3.56594 -1.8507 0.558709 -3.49221
129 1 -0.0118019 -3.53651 -1.3144 -3.49375
130 1 1.74525 -1.82568 44.7426 -3.50872
131 1 1.76047 -3.58181 0.619102 -3.48188
132 1 -0.0579036 -1.78911 0.599842 -3.52219
133 1 3.48023 -3.45381 -1.07401 -3.40005
134 1 5.23098 -1.67972 -1.23642 -3.50045
135 1 5.29696 -3.53401 0.664875 -3.5022
136 1 3.41127 -1.72314 0.564437 -3.44075
137 1 7.09098 -3.52099 44.7502 -3.52283
138 1 8.95425 -1.64203 -1.46954 -3.49294
139 1 8.86744 -3.52664 0.493095 -3.50954
140 1 7.08091 -1.92953 0.563822 -3.49253
141 1 10.697 -3.53474 -1.35692 -3.53437
142 1 12.3476 -1.57452 -1.42492 -3.51555
143 1 12.3989 -3.50493 0.487797 -3.51363
144 1 10.5562 -1.68666 0.51857 -3.4908
145 1 14.2338 -3.40618 44.928 -3.41055
146 1 15.9143 -1.78181 -1.52612 -3.11147
147 1 15.8991 -3.54333 0.627087 -3.03292
148 1 14.1742 -1.68426 0.50956 -3.4766
149 1 -17.4989 0.0570828 44.7526 -2.31457
150 1 -15.9071 1.95416 -1.4477 -3.13931
151 1 -15.958 0.0495957 0.497226 -3.22643
152 1 -14.1697 0.107166 -1.38848 -3.43111
153 1 -12.4303 1.87799 44.6741 -3.48101
154 1 -12.3573 0.237945 0.569461 -3.51427
155 1 -14.1918 1.97128 0.661779 -3.40141
156 1 -10.7426 0.103428 44.8625 -3.46433
157 1 -8.86074 1.75562 44.8661 -3.51825
158 1 -8.82528 0.0657032 0.547783 -3.48321
159 1 -10.52 1.94519 0.592236 -3.5074
160 1 -6.99236 0.129161 44.8511 -3.51443
161 1 -5.30506 2.0024 44.8507 -3.4163
162 1 -5.28803 0.10187 0.64955 -3.5077
163 1 -7.13255 1.96422 0.536807 -3.49708
164 1 -3.57011 0.00730132 -1.35891 -3.52391
165 1 -1.81488 1.73667 44.8098 -3.49056
166 1 -1.84261 -0.133314 0.473469 -3.46893
167 1 -3.40163 1.75075 0.492485 -3.49839
168 1 -0.0317867 0.0527017 -1.44046 -3.52789
169 1 1.73621 1.72638 44.822 -3.47325
170 1 1.69945 -0.096902 0.600207 -3.478
171 1 -0.0597149 1.65727 0.602642 -3.50085
172 1 3.5023 0.0918399 -1.19524 -3.50877
173 1 5.40233 1.74972 -1.33829 -3.4664
174 1 5.19233 -0.0204752 0.643223 -3.5151
175 1 3.50817 1.92767 0.480574 -3.51583
176 1 7.00391 -0.0423467 44.8224 -3.48839
177 1 8.80944 1.67908 -1.42247 -3.51067
178 1 8.8279 0.0167269 0.438364 -3.50941
179 1 6.97848 1.67806 0.673587 -3.5043
180 1 10.6206 0.0266083 -1.38039 -3.4334
181 1 12.4654 1.64286 -1.25248 -3.45077
182 1 12.4067 -0.0944581 0.657313 -3.46803
183 1 10.6215 1.83621 0.438721 -3.49037
184 1 14.2878 0.119504 -1.37379 -3.47334
185 1 16.0217 1.94554 -1.20579 -3.07903
186 1 16.1757 -0.0528395 0.632808 -3.14762
187 1 14.2194 1.75141 0.481463 -3.45379
188 1 17.511 0.178628 44.9384 -2.32458
189 1 -15.9245 5.29555 44.7913 -2.99484
190 1 -15.9912 3.48972 0.514698 -2.98691
191 1 -14.22 3.59036 44.7266 -3.39931
192 1 -12.3695 5.39268 44.6016 -3.51881
193 1 -12.4734 3.48707 0.371024 -3.42497
194 1 -14.1632 5.21607 0.403828 -3.38646
195 1 -10.6271 3.64611 44.6957 -3.51381
196 1 -8.76023 5.26317 44.73 -3.46785
197 1 -8.7907 3.68725 0.54188 -3.48221
198 1 -10.871 5.35836 0.434836 -3.49019
199 1 -6.99797 3.6329 -1.41725 -3.44502
200 1 -5.38872 5.35728 44.7685 -3.49015
201 1 -5.27639 3.55554 0.614752 -3.50055
202 1 -7.07128 5.41924 0.523337 -3.49606
203 1 -3.59787 3.51662 -1.52343 -3.41822
204 1 -1.75806 5.23668 -1.33068 -3.5042
205 1 -1.6544 3.53845 0.535661 -3.51697
206 1 -3.58694 5.34896 0.600004 -3.49671
207 1 -0.016404 3.42865 44.7934 -3.47905
208 1 1.72416 5.45004 -1.57154 -3.5073
209 1 1.58198 3.47889 0.44446 -3.47474
210 1 -0.00445951 5.33115 0.548144 -3.48904
211 1 3.48159 3.49434 44.6217 -3.46249
212 1 5.23701 5.16229 -1.51163 -3.48158
213 1 5.34374 3.5393 0.524373 -3.48971
214 1 3.31903 5.21773 0.343607 -3.48719
215 1 7.0032 3.44214 44.779 -3.46794
216 1 8.80121 5.28719 -1.48791 -3.51517
217 1 8.70991 3.49728 0.523018 -3.52636
218 1 7.02111 5.25628 0.579918 -3.46746
219 1 10.6705 3.35209 -1.37836 -3.46793
220 1 12.203 5.30442 -1.27936 -3.51366
221 1 12.4898 3.6293 0.546917 -3.51524
222 1 10.4444 5.35274 0.598869 -3.49534
223 1 14.2079 3.77682 -1.40456 -3.38546
224 1 15.9105 5.45678 -1.17349 -2.95923
225 1 15.7126 3.70502 0.749161 -3.05382
226 1 14.0723 5.44834 0.536873 -3.45614
227 1 -15.6667 7.03702 0.465961 -2.73975
228 1 -14.3567 7.11365 44.5904 -3.31236
229 1 -12.3839 8.88038 -1.41055 -3.46424
230 1 -12.5825 7.10951 0.348096 -3.50059
231 1 -14.2992 8.93787 0.354293 -3.03256
232 1 -10.4886 7.16032 44.6569 -3.4683
233 1 -8.86294 8.80085 44.8582 -3.39811
234 1 -8.87895 7.01519 0.594837 -3.4847
235 1 -10.4726 8.85245 0.549435 -3.4751
236 1 -7.13124 7.11993 -1.26551 -3.48714
237 1 -5.18698 8.86142 44.7365 -3.49148
238 1 -5.29234 7.18979 0.596546 -3.54081
239 1 -7.24843 8.93861 0.546366 -3.49183
240 1 -3.55497 7.1079 44.673 -3.46629
241 1 -1.91097 8.82927 44.6433 -3.42161
242 1 -1.83023 7.04479 0.564673 -3.48652
243 1 -3.4833 8.93075 0.508241 -3.5064
244 1 -0.0874861 7.18419 -1.30842 -3.48826
245 1 1.73437 8.92803 -1.51191 -3.49902
246 1 1.76019 6.98752 0.527622 -3.42228
247 1 -0.0218084 8.69697 0.547086 -3.4735
248 1 3.5692 7.02631 44.789 -3.50158
249 1 5.20127 8.86818 44.6023 -3.49269
250 1 5.3072 7.17795 0.556259 -3.50179
251 1 3.36652 8.87702 0.539036 -3.50575
252 1 6.97998 7.00789 44.6794 -3.52444
253 1 8.77094 8.82253 -1.51745 -3.48955
254 1 8.69891 6.98289 0.435115 -3.47969
255 1 7.03044 8.82116 0.554321 -3.42019
256 1 10.4641 7.06562 -1.29399 -3.46669
257 1 12.1056 8.98702 44.7162 -3.4382
258 1 12.215 7.22067 0.563676 -3.49151
259 1 10.438 8.90103 0.343993 -3.48145
260 1 14.0718 7.24695 -1.40992 -3.38214
261 1 15.9913 7.20139 0.596061 -2.63841
262 1 13.9665 8.8204 0.415587 -3.08495
263 1 -13.9492 10.7297 44.7524 -2.72012
264 1 -12.1507 12.6848 -1.29528 -2.75598
265 1 -12.2884 10.8068 0.573155 -3.32023
266 1 -10.8073 10.8737 44.5766 -3.38459
267 1 -8.75717 12.4616 44.676 -3.48995
268 1 -8.88679 10.7791 0.533214 -3.46389
269 1 -10.5048 12.4951 0.478552 -3.27504
270 1 -6.96998 10.5664 -1.3334 -3.46737
271 1 -5.38378 12.4862 44.7657 -3.52057
272 1 -5.39659 10.5548 0.540165 -3.49561
273 1 -7.00444 12.4343 0.550103 -3.48566
274 1 -3.40943 10.642 44.8626 -3.48961
275 1 -1.86222 12.6204 44.8336 -3.47766
276 1 -1.70584 10.6577 0.574378 -3.46062
277 1 -3.52576 12.3752 0.547924 -3.48922
278 1 -0.178524 10.6202 -1.25868 -3.50752
279 1 1.55157 12.5412 44.7141 -3.51868
280 1 1.56225 10.6225 0.485728 -3.4715
281 1 -0.0882354 12.4188 0.521056 -3.4625
282 1 3.41738 10.6689 -1.21958 -3.49976
283 1 5.28792 12.4715 -1.34072 -3.46959
284 1 5.35516 10.5456 0.571639 -3.50987
285 1 3.36457 12.358 0.578342 -3.5086
286 1 6.977 10.7608 44.6248 -3.4646
287 1 8.72434 12.4496 -1.40975 -3.45606
288 1 8.70901 10.6014 0.357266 -3.46052
289 1 7.09596 12.5497 0.451285 -3.45632
290 1 10.3294 10.615 -1.48776 -3.41308
291 1 12.1102 12.2104 44.8291 -2.90565
292 1 12.3054 10.592 0.563428 -3.33128
293 1 10.4163 12.303 0.413921 -3.34506
294 1 13.886 10.4992 44.4896 -2.71426
295 1 -10.3844 14.2645 44.7638 -2.69522
296 1 -8.65416 14.2206 0.729509 -3.07261
297 1 -7.06607 14.3832 -1.38276 -3.33154
298 1 -5.07981 16.1874 44.9601 -2.94809
299 1 -5.14207 14.1698 0.63703 -3.46262
300 1 -6.94423 15.8379 0.507953 -2.69583
301 1 -3.67784 14.282 44.7924 -3.43728
302 1 -2.01304 16.2566 -1.42274 -3.12933
303 1 -1.98916 14.2259 0.508936 -3.41887
304 1 -3.42523 16.1042 0.65333 -3.05151
305 1 -0.249465 14.4181 44.8525 -3.50496
306 1 1.93675 15.9511 -1.28196 -3.07367
307 1 1.55981 14.3015 0.374089 -3.43527
308 1 -0.498284 16.146 0.724449 -3.16791
309 1 3.50982 14.1521 -1.32842 -3.44744
310 1 5.23886 15.9059 44.8678 -2.96879
311 1 5.13427 14.0611 0.569369 -3.45161
312 1 3.629 16.016 0.517192 -3.01753
313 1 6.96802 14.3101 -1.37419 -3.34348
314 1 8.79501 14.3683 0.474636 -3.10239
315 1 6.8 15.9015 0.565984 -2.77484
316 1 10.6428 14.1589 44.8572 -2.69124
317 1 0.0440763 17.5223 44.9902 -2.39994
318 1 -5.43578 -16.1156 2.50125 -2.94719
319 1 -7.03388 -15.9659 4.47803 -2.74378
320 1 -1.92928 -16.0392 2.50127 -3.08334
321 1 -3.74204 -16.1011 4.27562 -3.02249
322 1 -0.207833 -17.5906 2.47839 -2.32242
323 1 1.90459 -15.8806 2.34266 -3.13871
324 1 -0.0630399 -15.8372 4.20783 -3.17546
325 1 5.34961 -15.9498 2.6393 -2.94456
326 1 3.42814 -15.952 4.31359 -3.02263
327 1 6.95195 -16.0352 4.29914 -2.64592
328 1 -12.3905 -12.3505 2.302 -2.82001
329 1 -10.4902 -14.1786 2.34877 -2.72187
330 1 -8.87572 -12.3656 2.55439 -3.42581
331 1 -8.80735 -14.2091 4.49439 -3.1132
332 1 -10.59 -12.5745 4.36507 -3.33079
333 1 -7.22933 -14.3292 2.45737 -3.36338
334 1 -5.27371 -12.591 2.41256 -3.51468
335 1 -5.34411 -14.2594 4.31064 -3.4551
336 1 -7.19246 -12.4463 4.49596 -3.45506
337 1 -3.45003 -14.2686 2.4535 -3.3717
338 1 -1.94018 -12.5312 2.52911 -3.43282
339 1 -1.82588 -14.2616 4.37326 -3.46486
340 1 -3.57415 -12.4902 4.39994 -3.48533
341 1 -0.0376429 -14.1351 2.55042 -3.49437
342 1 1.81747 -12.3496 2.40294 -3.50322
343 1 1.78936 -14.2115 4.28469 -3.46302
344 1 0.00702036 -12.4964 4.48754 -3.51508
345 1 3.58573 -14.0226 2.54363 -3.44036
346 1 5.14403 -12.226 2.38923 -3.49713
347 1 5.18572 -14.0362 4.40273 -3.5032
348 1 3.37866 -12.2587 4.3333 -3.48844
349 1 6.96455 -14.1681 2.47793 -3.37798
350 1 8.70361 -12.3436 2.54178 -3.44696
351 1 8.66825 -14.1604 4.28012 -3.14425
352 1 6.98383 -12.3336 4.4482 -3.46568
353 1 10.5736 -14.0824 2.57287 -2.6937
354 1 12.397 -12.3587 2.40227 -2.85728
355 1 10.589 -12.3621 4.25255 -3.33437
356 1 -14.0167 -10.5611 2.47473 -2.67117
357 1 -12.4006 -8.83777 2.47563 -3.41579
358 1 -12.4054 -10.6349 4.52464 -3.31361
359 1 -13.9824 -8.70383 4.45982 -3.11158
360 1 -10.7011 -10.6181 2.57501 -3.51245
361 1 -8.74902 -8.80194 2.36402 -3.52275
362 1 -8.8956 -10.6824 4.29714 -3.4535
363 1 -10.4367 -8.81741 4.48085 -3.49292
364 1 -7.08425 -10.7776 2.54728 -3.49672
365 1 -5.35212 -8.84588 2.47516 -3.47768
366 1 -5.28974 -10.7913 4.4224 -3.49563
367 1 -7.11827 -8.8645 4.50993 -3.49709
368 1 -3.41635 -10.5249 2.46801 -3.48647
369 1 -1.84836 -8.79793 2.51922 -3.49295
370 1 -1.74137 -10.7242 4.37505 -3.53983
371 1 -3.58391 -8.89549 4.59754 -3.47422
372 1 -0.0803376 -10.6849 2.47334 -3.54247
373 1 1.71304 -8.81483 2.49659 -3.46215
374 1 1.56837 -10.5826 4.37012 -3.49131
375 1 0.0455186 -8.6682 4.34332 -3.46626
376 1 3.4202 -10.4235 2.54441 -3.46061
377 1 5.30147 -8.83484 2.41351 -3.50496
378 1 5.11158 -10.6345 4.52338 -3.49267
379 1 3.30306 -8.88178 4.42843 -3.48993
380 1 7.04441 -10.6605 2.39524 -3.462
381 1 8.87411 -9.01611 2.51924 -3.49491
382 1 8.7383 -10.6597 4.33635 -3.46211
383 1 6.95856 -8.92605 4.45735 -3.50685
384 1 10.6453 -10.7283 2.37409 -3.46873
385 1 12.3982 -8.94026 2.40675 -3.47322
386 1 12.5414 -10.57 4.37243 -3.28066
387 1 10.6491 -8.82491 4.3505 -3.52027
388 1 14.2612 -10.5257 2.46042 -2.71561
389 1 14.1274 -8.91858 4.44614 -3.03679
390 1 -15.649 -5.18874 2.41661 -3.01427
391 1 -15.787 -6.6986 4.49803 -2.69455
392 1 -14.0598 -6.99533 2.45634 -3.3498
393 1 -12.1848 -5.31431 2.42564 -3.46886
394 1 -12.2279 -7.07947 4.35474 -3.46729
395 1 -13.9182 -5.23769 4.35987 -3.46649
396 1 -10.5383 -7.0848 2.52935 -3.49549
397 1 -8.74501 -5.1671 2.54015 -3.51736
398 1 -8.75597 -7.0483 4.44741 -3.49833
399 1 -10.6914 -5.16082 4.49781 -3.48705
400 1 -7.00277 -7.05036 2.63158 -3.5043
401 1 -5.3299 -5.15005 2.52367 -3.46973
402 1 -5.29241 -7.06088 4.46583 -3.49139
403 1 -7.00666 -5.28867 4.44625 -3.52475
404 1 -3.73605 -7.13097 2.66501 -3.47093
405 1 -1.87796 -5.47391 2.64382 -3.46015
406 1 -1.94429 -7.09281 4.44684 -3.50384
407 1 -3.63587 -5.2135 4.38413 -3.46659
408 1 -0.0773169 -6.95774 2.49722 -3.47931
409 1 1.66164 -5.19093 2.57724 -3.51514
410 1 1.70086 -7.06057 4.53761 -3.42706
411 1 0.0106549 -5.32168 4.54824 -3.48463
412 1 3.45006 -7.12886 2.46777 -3.5173
413 1 5.3122 -5.43486 2.39858 -3.52394
414 1 5.19501 -7.20356 4.4144 -3.50186
415 1 3.63549 -5.36327 4.44315 -3.49949
416 1 7.12304 -7.1634 2.42357 -3.49902
417 1 8.81928 -5.33986 2.34964 -3.49551
418 1 8.91471 -6.913 4.33421 -3.44996
419 1 7.11725 -5.32975 4.37081 -3.49222
420 1 10.5684 -7.21454 2.5209 -3.50333
421 1 12.4299 -5.43318 2.36453 -3.50028
422 1 12.513 -7.1086 4.37455 -3.52218
423 1 10.7694 -5.37188 4.25558 -3.50811
424 1 14.1712 -7.21302 2.37106 -3.35098
425 1 15.8121 -5.27197 2.4604 -2.99262
426 1 15.6639 -7.09995 4.31712 -2.75192
427 1 14.1214 -5.20828 4.43626 -3.4249
428 1 -15.7865 -1.78579 2.53269 -3.07677
429 1 -15.6428 -3.54323 4.31812 -3.06406
430 1 -13.9344 -3.43838 2.55969 -3.46195
431 1 -12.2484 -1.53213 2.59189 -3.53403
432 1 -12.2331 -3.29546 4.54448 -3.48301
433 1 -14.0949 -1.68342 4.42621 -3.47829
434 1 -10.5639 -3.36487 2.58498 -3.51456
435 1 -8.70046 -1.73041 2.47033 -3.48745
436 1 -8.85789 -3.49096 4.50116 -3.53078
437 1 -10.4363 -1.55032 4.41667 -3.5292
438 1 -7.05125 -3.49643 2.46386 -3.4244
439 1 -5.30817 -1.70788 2.59385 -3.52117
440 1 -5.24914 -3.47676 4.44513 -3.45936
441 1 -7.00809 -1.75758 4.27776 -3.46819
442 1 -3.46567 -3.57043 2.39816 -3.47549
443 1 -1.92699 -1.72078 2.45603 -3.48465
444 1 -1.81856 -3.55961 4.30924 -3.49579
445 1 -3.41866 -1.58059 4.53604 -3.53388
446 1 -0.106038 -3.55604 2.63331 -3.50462
447 1 1.76454 -1.88715 2.60528 -3.4908
448 1 1.68136 -3.49828 4.47393 -3.51949
449 1 -0.133309 -1.58496 4.34373 -3.48336
450 1 3.51257 -3.52088 2.46257 -3.5172
451 1 5.4129 -1.79068 2.47593 -3.47242
452 1 5.37531 -3.62572 4.27854 -3.50274
453 1 3.59925 -1.79359 4.33411 -3.50907
454 1 7.17274 -3.51935 2.5236 -3.48714
455 1 8.81106 -1.65685 2.45785 -3.51042
456 1 8.94425 -3.68884 4.25588 -3.4993
457 1 7.15407 -1.89162 4.38194 -3.52432
458 1 10.6003 -3.65245 2.26454 -3.50242
459 1 12.2404 -1.84691 2.33918 -3.47194
460 1 12.4553 -3.48819 4.35168 -3.47666
461 1 10.5967 -1.85462 4.19454 -3.47972
462 1 14.2029 -3.59084 2.39671 -3.43293
463 1 15.8899 -1.7349 2.52028 -3.15691
464 1 15.9569 -3.56821 4.34069 -3.01402
465 1 13.9747 -1.66595 4.2579 -3.42269
466 1 -17.282 -0.0388879 2.5601 -2.56128
467 1 -15.986 2.02623 2.4425 -3.12782
468 1 -16.0241 -0.0322838 4.69631 -3.11091
469 1 -14.3176 0.184169 2.51101 -3.4985
470 1 -12.3723 1.70055 2.49622 -3.48596
471 1 -12.3234 0.186457 4.39472 -3.47528
472 1 -14.3267 1.76998 4.26467 -3.48481
473 1 -10.414 0.1238 2.42887 -3.49334
474 1 -8.82412 1.94354 2.40821 -3.48827
475 1 -8.60122 0.154551 4.41505 -3.51944
476 1 -10.6132 1.85711 4.41401 -3.50038
477 1 -7.05068 0.1122 2.34173 -3.50356
478 1 -5.19335 1.95092 2.5054 -3.49184
479 1 -5.44112 0.261565 4.46813 -3.50152
480 1 -7.1263 2.1117 4.32823 -3.48488
481 1 -3.58432 0.043618 2.41833 -3.49096
482 1 -1.63995 1.90454 2.53564 -3.47621
483 1 -1.6689 0.246396 4.34704 -3.43545
484 1 -3.58437 1.73136 4.4736 -3.46388
485 1 -0.00286528 0.0303407 2.41703 -3.50576
486 1 1.80402 1.75479 2.36191 -3.51825
487 1 1.72909 -0.115149 4.44 -3.44052
488 1 0.106056 1.86999 4.42669 -3.52469
489 1 3.38996 -0.0532775 2.46276 -3.49538
490 1 5.11172 1.76311 2.39096 -3.50689
491 1 5.32867 -0.110196 4.30197 -3.47742
492 1 3.31809 1.57201 4.34389 -3.4784
493 1 6.99343 -0.0833874 2.51024 -3.44082
494 1 8.7464 1.67046 2.46055 -3.52852
495 1 8.93452 0.0334502 4.42515 -3.52427
496 1 6.89739 1.72549 4.31522 -3.51235
497 1 10.5963 -0.0376591 2.38679 -3.47948
498 1 12.3821 1.80758 2.49474 -3.52113
499 1 12.2288 -0.122465 4.30542 -3.45971
500 1 10.6409 1.78214 4.27931 -3.47999
501 1 14.1572 0.00364576 2.49603 -3.46354
502 1 15.8667 1.69239 2.3851 -3.12322
503 1 15.907 -0.0423676 4.48199 -3.19201
504 1 14.114 1.76951 4.2369 -3.49033
505 1 17.5405 0.077963 2.88057 -2.32184
506 1 -15.7208 5.15712 2.18139 -2.98996
507 1 -15.9767 3.85243 4.37504 -3.04492
508 1 -14.1202 3.49421 2.53098 -3.38695
509 1 -12.4525 5.31536 2.3895 -3.49766
510 1 -12.4357 3.65031 4.41151 -3.51354
511 1 -14.2779 5.39443 4.38403 -3.35603
512 1 -10.6926 3.64091 2.60969 -3.47762
513 1 -8.82302 5.26307 2.53255 -3.47461
514 1 -8.98427 3.7278 4.38548 -3.47526
515 1 -10.806 5.4537 4.32256 -3.46909
516 1 -7.07552 3.61892 2.42208 -3.45684
517 1 -5.25409 5.37415 2.42855 -3.5002
518 1 -5.21557 3.82326 4.31143 -3.47474
519 1 -7.04946 5.37536 4.5376 -3.49902
520 1 -3.46719 3.58833 2.5343 -3.47805
521 1 -1.72117 5.25119 2.54754 -3.47535
522 1 -1.7336 3.56726 4.4763 -3.53616
523 1 -3.45381 5.4291 4.51385 -3.44604
524 1 0.0169174 3.60613 2.50986 -3.4584
525 1 1.70049 5.26338 2.38943 -3.47893
526 1 1.80487 3.69577 4.41744 -3.49383
527 1 -0.0163219 5.3633 4.57327 -3.46219
528 1 3.51249 3.66118 2.39059 -3.48794
529 1 5.23594 5.47737 2.38211 -3.48248
530 1 5.08281 3.43258 4.23033 -3.48566
531 1 3.60465 5.46097 4.19407 -3.45801
532 1 6.91196 3.48457 2.52415 -3.52044
533 1 8.71248 5.30274 2.41801 -3.513
534 1 8.71281 3.61637 4.34814 -3.51985
535 1 6.80335 5.27575 4.29749 -3.54396
536 1 10.5054 3.54627 2.37166 -3.53097
537 1 12.3206 5.38846 2.4 -3.53448
538 1 12.3134 3.60586 4.37162 -3.50102
539 1 10.4489 5.42157 4.3227 -3.50284
540 1 14.1061 3.67388 2.58523 -3.42207
541 1 15.7446 5.48663 2.55675 -2.98611
542 1 15.8991 3.6796 4.29938 -3.01783
543 1 14.0443 5.47071 4.30551 -3.38509
544 1 -16.0179 6.90863 4.53037 -2.6041
545 1 -14.1044 7.25071 2.3238 -3.30688
546 1 -12.2877 9.0214 2.37204 -3.43664
547 1 -12.521 7.2502 4.10261 -3.4111
548 1 -14.2685 9.01145 4.36138 -3.04375
549 1 -10.6678 7.02753 2.33357 -3.50865
550 1 -8.84805 8.87851 2.549 -3.52158
551 1 -8.88903 7.11542 4.33209 -3.52301
552 1 -10.7257 8.92591 4.31321 -3.49742
553 1 -7.05885 7.11835 2.51879 -3.52104
554 1 -5.33255 8.87502 2.52023 -3.51321
555 1 -5.30133 7.09399 4.38754 -3.52374
556 1 -7.10809 8.93274 4.45923 -3.521
557 1 -3.43123 7.08469 2.51177 -3.53821
558 1 -1.76838 8.97854 2.48276 -3.4856
559 1 -1.81054 7.09501 4.47599 -3.4437
560 1 -3.54171 8.84094 4.35643 -3.5303
561 1 -0.235063 7.11904 2.50601 -3.48656
562 1 1.62853 8.9068 2.69464 -3.47903
563 1 1.69392 6.98265 4.39139 -3.50338
564 1 -0.0904911 8.80457 4.57637 -3.51473
565 1 3.44529 7.1294 2.35918 -3.49443
566 1 5.26632 8.84043 2.52677 -3.46942
567 1 5.19773 7.20156 4.27176 -3.41411
568 1 3.53675 8.8686 4.43142 -3.47618
569 1 7.06751 7.20501 2.44177 -3.44798
570 1 8.66092 8.91974 2.34597 -3.47047
571 1 8.6929 7.10097 4.32872 -3.50164
572 1 7.05496 8.9063 4.35946 -3.47251
573 1 10.5445 7.08923 2.42107 -3.50383
574 1 12.2222 8.91567 2.51026 -3.46924
575 1 12.3147 7.16188 4.35977 -3.46577
576 1 10.564 9.02913 4.44997 -3.5041
577 1 14.2681 7.36979 2.31417 -3.30841
578 1 15.6144 7.14647 4.39611 -2.73984
579 1 13.9063 8.85491 4.37168 -3.10722
580 1 -14.0953 10.6381 2.23617 -2.69493
581 1 -12.4914 12.3354 2.48512 -2.76397
582 1 -12.5482 10.9515 4.42427 -3.23593
583 1 -10.6198 10.8274 2.57759 -3.51055
584 1 -8.66823 12.4036 2.43277 -3.37996
585 1 -8.83251 10.8169 4.47071 -3.51203
586 1 -10.6983 12.4699 4.69728 -3.19138
587 1 -7.03715 10.6887 2.5446 -3.47494
588 1 -5.29453 12.4585 2.40662 -3.50208
589 1 -5.26114 10.8002 4.51121 -3.51161
590 1 -7.15737 12.5853 4.65455 -3.39625
591 1 -3.46443 10.7055 2.42616 -3.50528
592 1 -1.68308 12.4586 2.45997 -3.50827
593 1 -1.72708 10.694 4.42657 -3.48591
594 1 -3.44851 12.3135 4.36191 -3.43421
595 1 0.0624442 10.7109 2.66133 -3.42442
596 1 1.59215 12.4849 2.57893 -3.46657
597 1 1.79957 10.6954 4.49109 -3.51449
598 1 -0.0462526 12.6115 4.56965 -3.48125
599 1 3.49263 10.6075 2.44937 -3.5222
600 1 5.09686 12.4358 2.58206 -3.49351
601 1 4.98691 10.8395 4.50106 -3.46299
602 1 3.30662 12.5576 4.45753 -3.42467
603 1 6.84842 10.6993 2.46934 -3.47167
604 1 8.64702 12.3738 2.19232 -3.41116
605 1 8.5649 10.7065 4.27571 -3.45129
606 1 7.02247 12.5164 4.35179 -3.50713
607 1 10.4722 10.6223 2.4557 -3.46937
608 1 12.252 12.1832 2.51542 -2.84821
609 1 12.3348 10.6951 4.46635 -3.28127
610 1 10.5292 12.4143 4.34791 -3.30608
611 1 14.0622 10.5269 2.4661 -2.71358
612 1 -10.5968 13.783 2.66096 -2.77
613 1 -8.88285 14.1444 4.40363 -3.05221
614 1 -7.03674 14.3213 2.69601 -3.34049
615 1 -5.10821 15.9526 2.49816 -3.01148
616 1 -5.18388 13.9284 4.50912 -3.39842
617 1 -6.58592 15.9845 4.63552 -2.72556
618 1 -3.4706 14.1317 2.63566 -3.48145
619 1 -2.06307 16.1384 2.77992 -3.10674
620 1 -1.72126 14.3288 4.64206 -3.43258
621 1 -3.67752 15.7638 4.62753 -3.09432
622 1 -0.27902 14.4864 2.44498 -3.48591
623 1 1.71877 16.2772 2.25205 -3.06491
624 1 1.64635 14.3265 4.22172 -3.39448
625 1 0.0707342 16.156 4.4766 -3.22727
626 1 3.3769 14.2583 2.43272 -3.46185
627 1 5.20263 15.8717 2.38146 -2.97519
628 1 5.09356 14.1343 4.46851 -3.41393
629 1 3.36085 16.078 4.31787 -3.01878
630 1 6.9608 14.242 2.42764 -3.34755
631 1 8.89014 14.1505 4.43251 -3.06571
632 1 6.8761 15.7593 4.39643 -2.74005
633 1 10.4218 14.0554 2.45284 -2.71004
634 1 -0.272261 17.7037 2.54078 -2.35956
635 1 -5.30349 -16.1964 6.22094 -2.93738
636 1 -6.90394 -15.9229 8.12592 -2.71276
637 1 -1.98359 -15.9828 6.26302 -3.08119
638 1 -3.49212 -16.0486 8.36251 -2.97537
639 1 -0.0856613 -17.4105 5.9125 -2.41682
640 1 1.81457 -15.9222 6.17065 -3.08297
641 1 0.0751536 -16.0555 8.07398 -3.21053
642 1 5.17641 -16.1232 6.07546 -2.9246
643 1 3.74887 -15.8256 8.27939 -3.05178
644 1 6.73641 -16.0218 8.30672 -2.69542
645 1 -12.3054 -12.4109 6.31918 -2.84663
646 1 -10.5356 -14.1514 6.37475 -2.7327
647 1 -8.74044 -12.4796 6.36995 -3.44864
648 1 -8.8162 -14.2831 8.21017 -3.10626
649 1 -10.601 -12.5316 8.19221 -3.29307
650 1 -6.99444 -14.2148 6.25194 -3.3684
651 1 -5.36727 -12.3129 6.39933 -3.49066
652 1 -5.23546 -14.351 8.30434 -3.37075
653 1 -7.00765 -12.5645 8.29749 -3.52714
654 1 -3.5845 -14.3373 6.19884 -3.41276
655 1 -1.82896 -12.5094 6.36974 -3.53045
656 1 -1.69736 -14.2782 8.26366 -3.48908
657 1 -3.72752 -12.3935 8.2601 -3.47781
658 1 0.0629144 -14.3611 6.30666 -3.49669
659 1 1.72277 -12.4379 6.24088 -3.54166
660 1 1.77365 -14.2402 8.1488 -3.46461
661 1 0.00837139 -12.455 8.14388 -3.49056
662 1 3.5626 -14.3016 6.34622 -3.43966
663 1 5.20036 -12.4171 6.36221 -3.50497
664 1 5.42639 -14.129 8.42397 -3.34535
665 1 3.51157 -12.294 8.1167 -3.48485
666 1 6.97655 -14.2842 6.31584 -3.40934
667 1 8.72877 -12.4644 6.13431 -3.36741
668 1 8.73287 -14.5352 8.23107 -3.03214
669 1 7.2527 -12.5633 8.12586 -3.49067
670 1 10.3927 -14.2309 6.19689 -2.71521
671 1 12.2081 -12.4752 6.1579 -2.85247
672 1 10.4221 -12.5949 8.08487 -3.32182
673 1 -13.8879 -10.5527 6.4145 -2.71465
674 1 -12.2896 -8.77009 6.38839 -3.43913
675 1 -12.3207 -10.7074 8.2212 -3.30839
676 1 -13.8387 -8.86848 8.3186 -3.09847
677 1 -10.5384 -10.8071 6.18048 -3.4843
678 1 -8.83793 -8.86908 6.4469 -3.4975
679 1 -8.89722 -10.6978 8.4149 -3.47377
680 1 -10.538 -8.86002 8.31901 -3.49775
681 1 -7.12719 -10.5529 6.17072 -3.42792
682 1 -5.38994 -8.8632 6.35623 -3.48225
683 1 -5.36379 -10.5952 8.29784 -3.48699
684 1 -7.2057 -9.04698 8.30286 -3.44971
685 1 -3.4967 -10.6771 6.19073 -3.46271
686 1 -1.70777 -8.83638 6.3183 -3.5216
687 1 -1.8567 -10.5475 8.08325 -3.49093
688 1 -3.48433 -8.7921 8.24347 -3.48395
689 1 -0.070305 -10.6954 6.3002 -3.47268
690 1 1.58861 -8.92576 6.30171 -3.52457
691 1 1.59591 -10.6575 8.18034 -3.49196
692 1 -0.0653047 -8.76274 8.32606 -3.51107
693 1 3.48474 -10.5881 6.39441 -3.46968
694 1 5.26967 -8.86039 6.33482 -3.50856
695 1 5.30308 -10.6618 8.16794 -3.4895
696 1 3.53979 -8.90666 8.16977 -3.52307
697 1 7.16147 -10.7787 6.31443 -3.4577
698 1 8.76444 -8.80831 6.22026 -3.51687
699 1 8.9239 -10.685 8.05891 -3.47329
700 1 7.0429 -8.94041 8.2241 -3.5062
701 1 10.4419 -10.6962 6.15319 -3.49111
702 1 12.1738 -8.90133 6.302 -3.46921
703 1 12.1772 -10.7182 8.07429 -3.3686
704 1 10.5472 -8.89388 8.17976 -3.43677
705 1 14.0331 -10.5114 6.35163 -2.72691
706 1 13.9522 -8.85856 8.20527 -3.13409
707 1 -15.7491 -5.24105 6.31555 -2.96607
708 1 -15.7505 -6.99903 8.24227 -2.70457
709 1 -14.0462 -7.04697 6.37781 -3.36743
710 1 -12.3339 -5.12739 6.3117 -3.48133
711 1 -12.2907 -7.12524 8.38511 -3.39883
712 1 -13.8405 -5.34444 8.29208 -3.44197
713 1 -10.6088 -6.98343 6.44441 -3.5294
714 1 -8.76412 -5.17343 6.37051 -3.49086
715 1 -8.74548 -7.01828 8.3074 -3.47528
716 1 -10.5302 -5.06561 8.25439 -3.57625
717 1 -6.99406 -7.05206 6.4268 -3.52439
718 1 -5.23714 -5.26816 6.40846 -3.50837
719 1 -5.43933 -7.02639 8.34625 -3.52751
720 1 -7.22619 -5.20817 8.16095 -3.42865
721 1 -3.66983 -7.15762 6.42272 -3.49912
722 1 -1.90587 -5.24439 6.31715 -3.5517
723 1 -1.7623 -7.0593 8.36465 -3.48878
724 1 -3.59968 -5.3636 8.30567 -3.48244
725 1 0.000584906 -6.96617 6.38593 -3.49388
726 1 1.73962 -5.31676 6.27776 -3.44569
727 1 1.74202 -6.99336 8.25345 -3.48402
728 1 0.064286 -5.34153 8.34737 -3.47494
729 1 3.45682 -6.99576 6.33875 -3.508
730 1 5.26067 -5.31799 6.3069 -3.50434
731 1 5.30497 -7.13726 8.11965 -3.48751
732 1 3.50772 -5.29143 8.30082 -3.54124
733 1 7.04538 -7.01976 6.35719 -3.49904
734 1 8.91555 -5.30261 6.21473 -3.48973
735 1 8.8942 -7.2155 8.24718 -3.49212
736 1 7.03985 -5.40206 8.29087 -3.49145
737 1 10.5036 -7.12807 6.22178 -3.46892
738 1 12.3351 -5.37467 6.29254 -3.51761
739 1 12.3521 -7.07722 8.26212 -3.50426
740 1 10.64 -5.14435 8.1198 -3.47193
741 1 14.1047 -7.11323 6.33156 -3.37548
742 1 15.8504 -5.37102 6.33888 -2.98672
743 1 15.773 -7.06434 8.29311 -2.73321