ITEM: TIMESTEP
16000
ITEM: NUMBER OF ATOMS
3804
ITEM: BOX BOUNDS ss ss pp
-1.8064806579308989e+01 1.8107052938657723e+01
-1.8039534064346515e+01 1.7981732108981159e+01
-3.4704000000000002e-01 4.3727040000000002e+01
ITEM: ATOMS id type x y z c_peratom
1 1 -5.66906 -16.1894 43.8131 -2.93463
2 1 -7.27314 -16.0726 1.5396 -2.73658
3 1 -1.88622 -16.3106 -0.266438 -3.15399
4 1 -3.74319 -16.2799 1.50698 -3.03072
5 1 -0.14975 -17.9262 0.226196 -2.44229
6 1 1.91486 -16.2705 43.7428 -3.17216
7 1 -0.0138132 -15.9784 1.48685 -2.98378
8 1 5.28939 -16.2124 43.6481 -3.01394
9 1 3.66365 -16.2597 1.44476 -3.02503
10 1 7.05143 -16.2183 1.5057 -2.74103
11 1 -12.669 -12.5876 -0.481945 -2.86069
12 1 -10.9073 -14.1388 43.7452 -2.71977
13 1 -8.90764 -12.5367 43.8147 -3.45406
14 1 -9.13066 -14.4791 1.54704 -3.12314
15 1 -10.9627 -12.5393 1.44788 -3.31598
16 1 -7.25795 -14.4557 -0.223877 -3.31534
17 1 -5.34274 -12.5945 43.8895 -3.50697
18 1 -5.40708 -14.424 1.57814 -3.44541
19 1 -7.257 -12.6091 1.56285 -3.51872
20 1 -3.66955 -14.4891 -0.455864 -3.48827
21 1 -1.79353 -12.7189 -0.356962 -3.53908
22 1 -1.77027 -14.5185 1.3836 -3.4194
23 1 -3.58959 -12.7257 1.56844 -3.49621
24 1 -0.0213563 -14.6101 43.629 -3.43039
25 1 1.77532 -12.6982 43.7201 -3.50853
26 1 1.81924 -14.5738 1.32573 -3.42044
27 1 0.0314089 -12.7093 1.38047 -3.55081
28 1 3.57702 -14.3887 43.6324 -3.4597
29 1 5.19298 -12.473 -0.418623 -3.489
30 1 5.32086 -14.4381 1.21353 -3.43001
31 1 3.54684 -12.7326 1.47881 -3.52333
32 1 7.26677 -14.5035 43.681 -3.34162
33 1 9.00999 -12.5675 -0.497752 -3.40778
34 1 8.87107 -14.3121 1.42685 -3.14429
35 1 7.00231 -12.5581 1.32058 -3.5202
36 1 10.5645 -14.2405 -0.40791 -2.73193
37 1 12.5858 -12.5236 -0.336462 -2.87233
38 1 10.8543 -12.6812 1.59793 -3.31117
39 1 -14.4906 -10.5922 43.6535 -2.77004
40 1 -12.6695 -8.90597 -0.321355 -3.45592
41 1 -12.6623 -10.8364 1.40116 -3.34457
42 1 -14.5221 -9.04039 1.53517 -3.10253
43 1 -10.7926 -10.7457 43.7473 -3.52742
44 1 -8.95464 -9.00762 -0.316629 -3.52914
45 1 -9.10231 -10.7554 1.52618 -3.51052
46 1 -10.8524 -8.93775 1.48139 -3.50276
47 1 -7.19757 -10.894 -0.420711 -3.46983
48 1 -5.35768 -8.98162 43.7669 -3.48783
49 1 -5.29889 -10.9515 1.69914 -3.47802
50 1 -7.05069 -9.07394 1.5467 -3.53991
51 1 -3.60868 -10.8601 -0.377686 -3.51226
52 1 -1.79994 -9.09658 -0.308532 -3.52837
53 1 -1.75687 -10.8621 1.51961 -3.53469
54 1 -3.61601 -9.07125 1.53617 -3.53498
55 1 0.0338132 -10.7862 -0.431858 -3.52989
56 1 1.73073 -9.00659 43.7168 -3.52722
57 1 1.74694 -10.8294 1.55858 -3.51625
58 1 -0.103277 -8.9957 1.4968 -3.5217
59 1 3.35965 -10.884 43.7847 -3.48089
60 1 5.38996 -9.05304 -0.505907 -3.50374
61 1 5.17314 -10.7768 1.55081 -3.52258
62 1 3.54467 -8.90551 1.43676 -3.5114
63 1 7.15559 -10.7173 43.7438 -3.49767
64 1 8.97377 -8.94026 43.6731 -3.50064
65 1 8.86787 -10.733 1.39895 -3.47938
66 1 7.1916 -8.94255 1.5016 -3.51007
67 1 10.653 -10.806 43.8867 -3.50471
68 1 12.4497 -9.00778 43.7496 -3.4591
69 1 12.5198 -10.7294 1.47892 -3.35729
70 1 10.5875 -8.87351 1.48593 -3.48675
71 1 14.2843 -10.7133 -0.338239 -2.74951
72 1 14.3093 -9.03422 1.42301 -3.13827
73 1 -16.2943 -5.57215 -0.33012 -2.96797
74 1 -16.267 -7.24724 1.72753 -2.71248
75 1 -14.6424 -7.47802 43.8432 -3.33346
76 1 -12.8847 -5.57027 -0.351872 -3.48324
77 1 -12.6439 -7.2278 1.39676 -3.48014
78 1 -14.5605 -5.54874 1.52226 -3.40201
79 1 -10.815 -7.1973 -0.406905 -3.54964
80 1 -8.91286 -5.47052 -0.473253 -3.4764
81 1 -8.98641 -7.20366 1.4005 -3.51565
82 1 -10.7993 -5.42167 1.46253 -3.50126
83 1 -7.23134 -7.2276 43.696 -3.48403
84 1 -5.44086 -5.35746 43.6191 -3.51805
85 1 -5.36503 -7.17549 1.4838 -3.50242
86 1 -7.20207 -5.47988 1.39941 -3.52508
87 1 -3.74726 -7.23264 -0.385931 -3.49032
88 1 -1.86924 -5.52936 -0.403727 -3.52127
89 1 -1.91097 -7.21515 1.60378 -3.5239
90 1 -3.56884 -5.39161 1.4758 -3.49628
91 1 -0.000217857 -7.19832 43.7649 -3.52736
92 1 1.86066 -5.47682 43.6409 -3.49337
93 1 1.73513 -7.18371 1.5568 -3.51208
94 1 -0.0616688 -5.43278 1.61265 -3.49036
95 1 3.57045 -7.16509 43.5625 -3.45976
96 1 5.30602 -5.46579 43.6012 -3.47133
97 1 5.44818 -7.13169 1.49196 -3.48495
98 1 3.61076 -5.27894 1.43505 -3.51094
99 1 7.1498 -7.21481 43.7923 -3.50098
100 1 8.99599 -5.55657 43.8094 -3.47384
101 1 9.00682 -7.20851 1.4919 -3.46351
102 1 7.16288 -5.40479 1.42798 -3.51521
103 1 10.7471 -7.2503 -0.521067 -3.43626
104 1 12.5126 -5.41924 -0.404498 -3.52413
105 1 12.4233 -7.09366 1.47917 -3.49166
106 1 10.7806 -5.37225 1.43558 -3.4729
107 1 14.2078 -7.2341 43.6987 -3.36501
108 1 16.1383 -5.32661 -0.123855 -2.98538
109 1 16.0541 -7.09121 1.43883 -2.72427
110 1 14.2146 -5.48093 1.415 -3.4528
111 1 -16.224 -1.85165 43.7442 -3.08462
112 1 -16.1685 -3.45942 1.39387 -3.01963
113 1 -14.3516 -3.63932 43.8662 -3.47338
114 1 -12.5347 -1.84338 -0.295477 -3.49244
115 1 -12.5609 -3.60409 1.58862 -3.45714
116 1 -14.2764 -1.74029 1.47112 -3.42655
117 1 -10.8988 -3.89072 -0.377648 -3.51196
118 1 -8.96705 -1.93427 43.7242 -3.49987
119 1 -8.93082 -3.71036 1.35842 -3.5177
120 1 -10.7723 -1.9986 1.32566 -3.46362
121 1 -7.2105 -3.66295 43.5702 -3.47862
122 1 -5.45299 -1.88111 43.6339 -3.51443
123 1 -5.34432 -3.65541 1.43416 -3.50569
124 1 -7.15614 -1.90768 1.35812 -3.51354
125 1 -3.70132 -3.60682 43.7249 -3.49009
126 1 -1.84517 -1.92514 43.7203 -3.5235
127 1 -1.83049 -3.71784 1.4667 -3.51503
128 1 -3.68376 -1.87562 1.42134 -3.50723
129 1 -0.0188146 -3.80721 43.6759 -3.51727
130 1 1.73361 -1.6863 43.7048 -3.50581
131 1 1.81325 -3.6832 1.43675 -3.49872
132 1 -0.0397456 -1.8224 1.4165 -3.51245
133 1 3.48895 -3.34599 43.773 -3.46617
134 1 5.3906 -1.80414 43.7309 -3.51906
135 1 5.39687 -3.51266 1.51889 -3.51492
136 1 3.47426 -1.7478 1.60887 -3.50548
137 1 7.24756 -3.65537 43.7588 -3.52253
138 1 8.98303 -1.69539 43.8458 -3.50639
139 1 8.97827 -3.55382 1.42471 -3.50839
140 1 7.19379 -1.82079 1.55187 -3.50354
141 1 10.7015 -3.61564 43.6897 -3.52529
142 1 12.4847 -1.80331 -0.359493 -3.53686
143 1 12.378 -3.60174 1.6135 -3.49529
144 1 10.8186 -1.79398 1.50471 -3.4834
145 1 14.3008 -3.59927 43.8129 -3.50805
146 1 16.1648 -1.87615 -0.369012 -3.16685
147 1 16.1086 -3.57836 1.5617 -3.02143
148 1 14.4529 -1.80031 1.49196 -3.4702
149 1 -17.7721 -0.0597494 -0.34916 -2.35916
150 1 -16.0219 1.81679 43.7107 -3.16912
151 1 -15.8894 -0.0663896 1.28558 -3.1878
152 1 -14.2923 -0.111086 43.6285 -3.44428
153 1 -12.505 1.51489 43.5806 -3.45126
154 1 -12.3828 -0.104563 1.49806 -3.47273
155 1 -14.1934 1.86404 1.55006 -3.49446
156 1 -10.7449 -0.060205 -0.386962 -3.48389
157 1 -8.92007 1.84438 -0.34306 -3.51236
158 1 -8.86564 -0.0622404 1.29741 -3.52214
159 1 -10.786 1.75277 1.40871 -3.52607
160 1 -7.14678 -0.0594232 43.4855 -3.49256
161 1 -5.27644 1.84369 43.7014 -3.52634
162 1 -5.34609 -0.0652475 1.35703 -3.52972
163 1 -7.16596 1.77083 1.34968 -3.48383
164 1 -3.63004 -0.0974234 43.4908 -3.48917
165 1 -1.94125 1.83093 43.5992 -3.53747
166 1 -1.83933 -0.0711917 1.34284 -3.5245
167 1 -3.49556 1.76259 1.5214 -3.50037
168 1 -0.107366 0.0961705 -0.451752 -3.51464
169 1 1.69604 1.80602 43.6433 -3.49327
170 1 1.60005 0.125717 1.4461 -3.50555
171 1 -0.16339 1.82937 1.44313 -3.50625
172 1 3.53386 0.00308939 43.7176 -3.5303
173 1 5.42277 1.7774 -0.150047 -3.46196
174 1 5.42347 0.0207299 1.50206 -3.49289
175 1 3.4563 1.86782 1.4299 -3.54168
176 1 7.20772 -0.0219124 -0.370877 -3.51342
177 1 8.87647 1.83305 -0.135787 -3.50246
178 1 8.89283 0.0440709 1.6662 -3.53382
179 1 7.05153 1.88522 1.5231 -3.42888
180 1 10.6826 0.0459628 -0.2639 -3.51902
181 1 12.5782 1.81544 -0.196418 -3.52589
182 1 12.5189 -0.100142 1.52955 -3.50312
183 1 10.7117 1.76881 1.52578 -3.52091
184 1 14.2873 0.0670235 -0.360447 -3.51958
185 1 16.1317 1.79281 -0.152966 -3.14965
186 1 16.0908 -0.00438579 1.54447 -3.22355
187 1 14.3944 1.78166 1.63043 -3.4669
188 1 17.7226 0.0335718 43.8929 -2.38318
189 1 -16.0047 5.46626 -0.404062 -3.00949
190 1 -15.9467 3.71404 1.3724 -3.06552
191 1 -14.2137 3.52849 43.681 -3.46074
192 1 -12.5824 5.46703 -0.335148 -3.50402
193 1 -12.471 3.61894 1.54497 -3.51829
194 1 -14.208 5.4614 1.51299 -3.41189
195 1 -10.7226 3.51984 43.7378 -3.50035
196 1 -8.9209 5.37665 -0.42222 -3.45054
197 1 -8.93185 3.61993 1.45094 -3.50574
198 1 -10.7687 5.47288 1.48741 -3.47788
199 1 -7.18987 3.7503 -0.35992 -3.5065
200 1 -5.27253 5.53547 43.6859 -3.52691
201 1 -5.43952 3.73969 1.57323 -3.5326
202 1 -7.2634 5.47782 1.55545 -3.48106
203 1 -3.61498 3.7058 -0.445829 -3.47336
204 1 -1.78835 5.33605 -0.44864 -3.52421
205 1 -1.83127 3.62895 1.45873 -3.50159
206 1 -3.53285 5.50209 1.44208 -3.54698
207 1 -0.0209444 3.53516 43.7284 -3.51257
208 1 1.67506 5.38758 43.6126 -3.53412
209 1 1.6254 3.74834 1.49932 -3.50068
210 1 -0.084943 5.5028 1.50798 -3.47296
211 1 3.51534 3.55829 43.6478 -3.5057
212 1 5.29873 5.43032 -0.441791 -3.47309
213 1 5.3153 3.68483 1.38084 -3.51854
214 1 3.44971 5.37801 1.41778 -3.50398
215 1 7.21709 3.7812 -0.302399 -3.50309
216 1 9.1731 5.54695 -0.252643 -3.4902
217 1 9.06236 3.70161 1.54464 -3.5267
218 1 7.08271 5.62571 1.47837 -3.49315
219 1 10.7487 3.57826 -0.356471 -3.50406
220 1 12.6633 5.46765 -0.128458 -3.52193
221 1 12.6149 3.52492 1.60099 -3.51171
222 1 10.8122 5.50023 1.53596 -3.50641
223 1 14.2957 3.68229 -0.312726 -3.4898
224 1 16.376 5.39058 43.7099 -2.96174
225 1 16.1256 3.77628 1.46488 -3.06318
226 1 14.4104 5.54754 1.61932 -3.446
227 1 -16.1815 6.96531 1.43681 -2.68307
228 1 -14.4421 7.50686 -0.385427 -3.33452
229 1 -12.4469 9.01505 -0.204612 -3.42091
230 1 -12.5638 7.17018 1.44821 -3.45584
231 1 -14.2295 8.93999 1.60764 -3.12309
232 1 -10.7268 7.16757 43.8245 -3.4835
233 1 -8.94364 9.11139 43.8277 -3.54924
234 1 -9.10493 7.1397 1.54495 -3.46439
235 1 -10.8482 9.06156 1.57338 -3.50803
236 1 -7.30013 7.141 43.7424 -3.51372
237 1 -5.50022 8.9198 -0.383563 -3.47352
238 1 -5.43816 7.2545 1.4673 -3.49342
239 1 -7.15598 9.05342 1.5092 -3.51965
240 1 -3.48176 7.32513 43.6998 -3.49175
241 1 -1.71342 8.97334 -0.411016 -3.48168
242 1 -1.7471 7.32413 1.47067 -3.49987
243 1 -3.64098 8.89244 1.5146 -3.49907
244 1 -0.0466543 7.18346 43.7308 -3.51932
245 1 1.87751 9.02064 43.7364 -3.54821
246 1 1.78679 7.2018 1.45612 -3.51347
247 1 0.0677374 9.02428 1.5185 -3.50758
248 1 3.63803 7.09168 -0.372306 -3.4737
249 1 5.24193 8.9859 -0.366852 -3.52301
250 1 5.22904 7.16082 1.47885 -3.49844
251 1 3.5035 8.97036 1.50064 -3.5017
252 1 7.1432 7.3849 43.7925 -3.49229
253 1 8.92825 8.95235 -0.234157 -3.49212
254 1 8.95558 7.38434 1.68839 -3.48848
255 1 6.95572 9.04664 1.47497 -3.51666
256 1 10.9136 7.34323 -0.137333 -3.47747
257 1 12.7512 9.03872 -0.256117 -3.43577
258 1 12.5521 7.36964 1.63978 -3.51182
259 1 10.7066 9.14826 1.568 -3.5105
260 1 14.5129 7.279 -0.232928 -3.36097
261 1 16.3969 7.05594 1.42903 -2.70745
262 1 14.5089 8.81024 1.67127 -3.13329
263 1 -14.1036 10.6884 -0.275164 -2.78544
264 1 -12.6005 12.6529 -0.420439 -2.81678
265 1 -12.6353 10.8351 1.74623 -3.29407
266 1 -10.7457 10.9089 43.8015 -3.51648
267 1 -8.96996 12.6919 -0.354526 -3.44087
268 1 -8.90563 10.9803 1.49371 -3.51543
269 1 -10.8066 12.6739 1.46616 -3.33969
270 1 -7.05705 10.8592 -0.293974 -3.50241
271 1 -5.22953 12.6189 -0.395209 -3.52777
272 1 -5.26849 10.8765 1.57825 -3.50079
273 1 -7.1568 12.7574 1.49557 -3.50378
274 1 -3.47932 10.7046 -0.314668 -3.5565
275 1 -1.75069 12.6069 43.6198 -3.52246
276 1 -1.62284 10.7278 1.49644 -3.51851
277 1 -3.47505 12.7531 1.42965 -3.49627
278 1 0.0637424 10.8006 43.7443 -3.5191
279 1 1.76028 12.7526 43.7295 -3.46948
280 1 1.84853 10.9146 1.37614 -3.5312
281 1 0.153752 12.7687 1.41622 -3.47553
282 1 3.66857 10.9536 43.6711 -3.50031
283 1 5.40948 12.6436 43.8479 -3.469
284 1 5.29782 10.8696 1.40617 -3.47856
285 1 3.55088 12.8467 1.44505 -3.4923
286 1 7.0291 10.7394 -0.398203 -3.52991
287 1 8.87888 12.3249 -0.257693 -3.48553
288 1 8.79169 10.6641 1.55857 -3.48724
289 1 7.13072 12.4883 1.52573 -3.48354
290 1 10.8577 10.8525 -0.241249 -3.45934
291 1 12.5711 12.4827 -0.0685161 -2.83784
292 1 12.5754 10.7477 1.69212 -3.33026
293 1 10.6176 12.4172 1.58173 -3.37743
294 1 14.397 10.8297 -0.033642 -2.718
295 1 -10.8294 14.4962 43.8407 -2.70028
296 1 -8.81889 14.5565 1.40081 -3.12586
297 1 -6.99553 14.4892 -0.311346 -3.37079
298 1 -5.21102 16.2977 43.8546 -3.00907
299 1 -5.26569 14.4011 1.56237 -3.48589
300 1 -7.08338 16.2102 1.52693 -2.72686
301 1 -3.53596 14.4286 -0.383314 -3.48775
302 1 -1.704 16.2779 43.8393 -3.13676
303 1 -1.63958 14.4584 1.45792 -3.47103
304 1 -3.45028 16.16 1.54734 -3.05798
305 1 -0.0435933 14.4967 -0.360155 -3.47423
306 1 1.82351 16.3055 43.6051 -3.14927
307 1 1.82946 14.5113 1.45792 -3.43809
308 1 0.296471 16.3043 1.46805 -3.22723
309 1 3.63097 14.3288 43.5713 -3.43764
310 1 5.43964 16.1267 43.5029 -3.0162
311 1 5.4356 14.4482 1.45297 -3.43098
312 1 3.74084 16.2598 1.3379 -3.06741
313 1 7.21204 14.3056 -0.324779 -3.38506
314 1 8.88091 14.2879 1.58246 -3.15085
315 1 7.09491 16.2065 1.27503 -2.69233
316 1 10.6839 14.1297 -0.236515 -2.76234
317 1 -0.0160878 17.9682 43.6743 -2.32905
318 1 -5.59583 -16.1262 3.31538 -2.99461
319 1 -7.04391 -16.2516 5.15758 -2.70569
320 1 -1.98682 -16.2578 3.1722 -3.1561
321 1 -3.85472 -16.2164 4.98911 -3.06525
322 1 -0.040288 -18.0052 2.58398 -2.41375
323 1 1.72607 -16.4492 3.07342 -3.12221
324 1 -0.213113 -16.4058 4.99009 -3.19029
325 1 5.30231 -16.365 3.12829 -2.93049
326 1 3.7162 -16.4633 5.01464 -2.98941
327 1 7.29256 -16.3184 4.88947 -2.63925
328 1 -12.6954 -12.6299 3.15553 -2.83062
329 1 -10.8655 -14.4334 3.40022 -2.67461
330 1 -9.03613 -12.4536 3.34434 -3.44272
331 1 -9.11443 -14.4394 5.21138 -3.13746
332 1 -10.8634 -12.6377 5.05662 -3.31828
333 1 -7.32016 -14.4065 3.33705 -3.33365
334 1 -5.56108 -12.8938 3.44572 -3.44109
335 1 -5.61255 -14.389 5.24889 -3.38124
336 1 -7.46843 -12.6495 5.39168 -3.40946
337 1 -3.59653 -14.3802 3.38322 -3.44845
338 1 -1.81952 -12.6393 3.37749 -3.50196
339 1 -1.8527 -14.4982 5.22168 -3.46785
340 1 -3.66886 -12.756 5.21763 -3.50042
341 1 0.0884684 -14.6006 3.37099 -3.41864
342 1 1.74193 -12.7958 3.31128 -3.52857
343 1 1.84807 -14.7498 5.06706 -3.46524
344 1 0.0355643 -12.8169 5.19433 -3.52412
345 1 3.7182 -14.5702 3.17977 -3.46731
346 1 5.34844 -12.6825 3.31759 -3.49199
347 1 5.41864 -14.5913 5.14394 -3.50381
348 1 3.57364 -12.8442 5.14117 -3.55088
349 1 7.05086 -14.3816 3.22959 -3.39956
350 1 9.00629 -12.6059 3.27039 -3.44444
351 1 8.71598 -14.3947 5.1062 -3.11764
352 1 7.03989 -12.6507 5.24881 -3.46802
353 1 10.5399 -14.3906 3.49101 -2.73532
354 1 12.416 -12.7849 3.4294 -2.82135
355 1 10.7346 -12.548 5.08977 -3.30379
356 1 -14.3851 -10.7966 3.21864 -2.69441
357 1 -12.6654 -9.01047 3.42835 -3.48136
358 1 -12.5063 -10.8435 5.26977 -3.34112
359 1 -14.4635 -9.08927 5.18811 -3.09811
360 1 -10.9387 -10.8314 3.34531 -3.51129
361 1 -8.96773 -9.11398 3.43165 -3.52183
362 1 -9.12856 -10.8703 5.24847 -3.49181
363 1 -10.7453 -8.93823 5.26675 -3.51645
364 1 -7.29781 -10.9343 3.42022 -3.47112
365 1 -5.37741 -9.0861 3.50695 -3.51659
366 1 -5.41237 -10.9243 5.2564 -3.54381
367 1 -7.27583 -9.08842 5.26354 -3.53633
368 1 -3.60139 -10.9105 3.39751 -3.46503
369 1 -1.88875 -9.12813 3.41993 -3.52656
370 1 -1.91729 -10.9009 5.08568 -3.48628
371 1 -3.68448 -9.05289 5.35975 -3.48541
372 1 -0.013309 -10.8932 3.32612 -3.51892
373 1 1.74805 -9.00726 3.22482 -3.47836
374 1 1.72474 -10.8526 5.06191 -3.48077
375 1 -0.0682585 -9.17633 5.2658 -3.50777
376 1 3.38163 -10.8167 3.40098 -3.45909
377 1 5.34677 -9.01279 3.27762 -3.50496
378 1 5.21734 -10.9498 5.10308 -3.45244
379 1 3.60433 -9.18762 5.30066 -3.43168
380 1 7.19652 -10.8595 3.32701 -3.53484
381 1 8.88166 -8.95263 3.40494 -3.49474
382 1 9.05284 -10.7691 5.16419 -3.49253
383 1 7.31072 -8.96547 5.3399 -3.4533
384 1 10.7442 -10.7749 3.2153 -3.53839
385 1 12.5393 -8.92184 3.31623 -3.47919
386 1 12.631 -10.8316 4.87511 -3.31233
387 1 10.7563 -8.94897 5.1451 -3.51709
388 1 14.3988 -10.8132 3.24672 -2.67974
389 1 14.3145 -9.07232 5.0019 -3.08026
390 1 -16.167 -5.33734 3.27935 -2.99377
391 1 -16.0032 -7.06068 5.04249 -2.77586
392 1 -14.2999 -7.14185 3.2915 -3.37095
393 1 -12.3947 -5.33229 3.33241 -3.48932
394 1 -12.5675 -7.08985 5.17049 -3.49873
395 1 -14.1583 -5.30369 5.03135 -3.43113
396 1 -10.7738 -7.31619 3.29727 -3.51402
397 1 -8.98878 -5.51828 3.28022 -3.53678
398 1 -8.97709 -7.25957 5.1917 -3.51277
399 1 -10.7402 -5.32119 5.24103 -3.50376
400 1 -7.16884 -7.232 3.35351 -3.51853
401 1 -5.36669 -5.50246 3.26492 -3.50707
402 1 -5.34592 -7.24462 5.20801 -3.49361
403 1 -7.14416 -5.43298 5.03505 -3.49272
404 1 -3.65282 -7.29341 3.37006 -3.50565
405 1 -1.90502 -5.47108 3.41289 -3.51985
406 1 -1.86232 -7.27987 5.22177 -3.53711
407 1 -3.6669 -5.32972 5.21668 -3.53456
408 1 -0.0424586 -7.28251 3.47529 -3.5342
409 1 1.8341 -5.46802 3.39434 -3.47954
410 1 1.81542 -7.47192 5.19703 -3.52692
411 1 -0.0355818 -5.42169 5.17976 -3.53781
412 1 3.67492 -7.20659 3.30561 -3.46886
413 1 5.23787 -5.34924 3.27416 -3.50645
414 1 5.26043 -7.19797 5.1407 -3.52055
415 1 3.38985 -5.43897 5.10704 -3.46653
416 1 7.14508 -7.2144 3.33172 -3.52628
417 1 9.12967 -5.42049 3.2611 -3.51202
418 1 8.94625 -7.24268 5.12381 -3.47646
419 1 7.16345 -5.44733 5.10119 -3.53992
420 1 10.7037 -7.19866 3.36798 -3.48106
421 1 12.5709 -5.443 3.29844 -3.53108
422 1 12.6079 -7.24438 5.21222 -3.51825
423 1 10.8389 -5.39588 5.13383 -3.52666
424 1 14.357 -7.24626 3.36277 -3.37338
425 1 16.1385 -5.42527 3.31451 -2.98476
426 1 16.0519 -7.3962 5.38722 -2.67297
427 1 14.3281 -5.47433 5.2339 -3.47186
428 1 -16.1745 -1.93352 3.39798 -3.11005
429 1 -16.3301 -3.65383 5.0776 -2.95433
430 1 -14.2898 -3.70284 3.28583 -3.45881
431 1 -12.6232 -1.82852 3.25752 -3.47955
432 1 -12.4871 -3.38985 5.04807 -3.48309
433 1 -14.5333 -1.90262 5.06888 -3.45866
434 1 -10.6799 -3.5567 3.1695 -3.49178
435 1 -8.81599 -1.9207 3.21428 -3.50643
436 1 -9.01448 -3.68199 5.09351 -3.50441
437 1 -10.5863 -1.74726 5.07922 -3.51953
438 1 -7.10333 -3.69094 3.24674 -3.51789
439 1 -5.35929 -1.83742 3.32991 -3.52901
440 1 -5.45258 -3.62648 5.14814 -3.47519
441 1 -7.19202 -1.88824 5.16201 -3.51555
442 1 -3.59876 -3.58886 3.42907 -3.49255
443 1 -1.82214 -1.91302 3.36347 -3.52903
444 1 -1.87057 -3.55643 5.2873 -3.47263
445 1 -3.68831 -1.90852 5.15965 -3.4721
446 1 -0.0858205 -3.751 3.2769 -3.49309
447 1 1.49439 -1.76216 3.24873 -3.46465
448 1 1.6864 -3.50234 5.13759 -3.51378
449 1 -0.104229 -1.88123 5.14214 -3.47558
450 1 3.43922 -3.5232 3.3249 -3.50829
451 1 5.2348 -1.80408 3.25115 -3.4852
452 1 5.3701 -3.63946 5.10571 -3.5305
453 1 3.65048 -1.73454 5.24861 -3.45172
454 1 7.19636 -3.59209 3.33389 -3.52611
455 1 9.03273 -1.94396 3.26403 -3.46396
456 1 8.93645 -3.68627 5.30593 -3.48851
457 1 7.27626 -1.91247 5.10481 -3.4772
458 1 10.7254 -3.57138 3.47274 -3.48052
459 1 12.6632 -1.72693 3.35737 -3.45124
460 1 12.6684 -3.65557 5.22538 -3.53977
461 1 10.7553 -1.71317 5.15527 -3.51515
462 1 14.3403 -3.56277 3.23029 -3.47513
463 1 16.3907 -1.89248 3.25595 -3.10209
464 1 16.1648 -3.66979 5.04595 -3.004
465 1 14.4646 -1.85182 5.06589 -3.45577
466 1 -17.6523 0.101067 3.06762 -2.37561
467 1 -16.0898 1.8766 3.29322 -3.1069
468 1 -16.2887 -0.0134785 5.1091 -3.17749
469 1 -14.3617 -0.0185799 3.20614 -3.49464
470 1 -12.4869 1.56126 3.27817 -3.45651
471 1 -12.3985 -0.104738 5.03395 -3.4812
472 1 -14.342 1.54799 5.17702 -3.48718
473 1 -10.5699 -0.137144 3.09076 -3.52584
474 1 -8.82997 1.83802 3.12537 -3.50123
475 1 -8.8354 0.00499975 5.11752 -3.52474
476 1 -10.7605 1.63487 4.99769 -3.47053
477 1 -7.06907 0.0289251 3.18958 -3.50778
478 1 -5.44712 1.90211 3.29759 -3.51835
479 1 -5.37112 0.0627368 5.0785 -3.53642
480 1 -7.14213 1.95278 5.12659 -3.51744
481 1 -3.50945 -0.0024976 3.31289 -3.48627
482 1 -1.79081 1.93391 3.29175 -3.50169
483 1 -1.97271 -0.0841522 5.04377 -3.46904
484 1 -3.58175 1.77312 5.11447 -3.48398
485 1 -0.0842104 0.0267635 3.26723 -3.49439
486 1 1.6177 1.78717 3.29046 -3.51485
487 1 1.63828 -0.0397697 5.11739 -3.52609
488 1 -0.0966877 1.74247 5.1766 -3.49673
489 1 3.49498 0.122499 3.32193 -3.52153
490 1 5.3798 1.72023 3.19874 -3.4693
491 1 5.32017 0.127739 5.04742 -3.48577
492 1 3.46049 1.75755 5.19681 -3.49771
493 1 7.19047 -0.161767 3.43806 -3.49457
494 1 8.92099 1.83669 3.38793 -3.50579
495 1 9.01448 0.108675 5.13802 -3.47848
496 1 7.20624 1.89585 5.11302 -3.50282
497 1 10.8693 -0.0116614 3.36778 -3.5044
498 1 12.6179 1.68821 3.3315 -3.49949
499 1 12.6873 -0.138052 5.14919 -3.48266
500 1 10.7432 1.84013 5.07286 -3.50307
501 1 14.3708 -0.0316213 3.38255 -3.48983
502 1 16.2367 1.95423 3.29489 -3.12786
503 1 16.2506 0.063833 5.17837 -3.21342
504 1 14.3978 1.80235 5.21042 -3.48795
505 1 17.7856 0.165839 3.34173 -2.3687
506 1 -16.1133 5.43093 3.40263 -3.01309
507 1 -15.9668 3.56071 5.08326 -2.99621
508 1 -14.3126 3.53037 3.49326 -3.42427
509 1 -12.5801 5.41105 3.2653 -3.45498
510 1 -12.3053 3.57541 5.19095 -3.49672
511 1 -14.2101 5.47284 5.07588 -3.44587
512 1 -10.5787 3.48952 3.33939 -3.49132
513 1 -9.05902 5.41503 3.30818 -3.45241
514 1 -9.04964 3.50723 5.23987 -3.50397
515 1 -10.6715 5.39658 5.16911 -3.50601
516 1 -7.28589 3.82021 3.30339 -3.45578
517 1 -5.34996 5.5355 3.34308 -3.49523
518 1 -5.29366 3.67543 5.07066 -3.52891
519 1 -7.25275 5.32844 5.16097 -3.51803
520 1 -3.5747 3.75486 3.34154 -3.48271
521 1 -1.74185 5.41491 3.16728 -3.45696
522 1 -1.92557 3.59423 5.16049 -3.47311
523 1 -3.47879 5.41678 5.09188 -3.48793
524 1 -0.0610267 3.6832 3.42577 -3.50469
525 1 1.76686 5.50523 3.21901 -3.47363
526 1 1.70117 3.63047 5.14394 -3.52789
527 1 -0.159573 5.37407 5.14907 -3.4914
528 1 3.36401 3.5897 3.20592 -3.51357
529 1 5.20963 5.36673 3.25273 -3.53118
530 1 5.20808 3.4632 5.06175 -3.52086
531 1 3.48065 5.35838 5.12483 -3.51409
532 1 7.10184 3.6713 3.35113 -3.5164
533 1 8.9642 5.50271 3.3415 -3.51139
534 1 8.86377 3.7422 5.05597 -3.47719
535 1 7.11418 5.38281 5.23323 -3.50487
536 1 10.8787 3.6472 3.27478 -3.51429
537 1 12.6883 5.40368 3.37374 -3.51108
538 1 12.6181 3.48016 5.11293 -3.48094
539 1 10.791 5.4118 5.25514 -3.51478
540 1 14.3757 3.50656 3.4554 -3.45495
541 1 16.2731 5.35635 3.36161 -3.01219
542 1 16.179 3.7179 5.29585 -2.98486
543 1 14.4087 5.39337 5.19158 -3.47537
544 1 -16.0564 7.30595 5.18675 -2.71694
545 1 -14.254 7.13908 3.33418 -3.34536
546 1 -12.5389 8.99427 3.40905 -3.42602
547 1 -12.5644 7.27602 5.21335 -3.50457
548 1 -14.4359 9.11906 5.352 -3.08272
549 1 -10.804 7.13697 3.41553 -3.50946
550 1 -9.06329 9.00829 3.24456 -3.50907
551 1 -8.91293 7.14755 5.1766 -3.52486
552 1 -10.7731 8.96301 5.12673 -3.49704
553 1 -7.18595 7.33245 3.276 -3.5294
554 1 -5.36436 9.13203 3.54431 -3.51637
555 1 -5.41146 7.14402 5.25239 -3.51825
556 1 -7.2373 9.07322 5.09455 -3.47027
557 1 -3.58798 7.15258 3.37815 -3.50734
558 1 -1.92128 9.02558 3.4064 -3.48482
559 1 -1.71105 7.21965 5.11872 -3.50193
560 1 -3.57414 9.05021 5.22203 -3.47533
561 1 -0.0265088 7.26623 3.31683 -3.52651
562 1 1.86528 9.13631 3.32099 -3.5309
563 1 1.71069 7.29791 5.18737 -3.54854
564 1 -0.0743864 9.11378 5.1553 -3.5029
565 1 3.48071 7.18333 3.30445 -3.49597
566 1 5.16491 8.94779 3.37545 -3.51488
567 1 5.24206 7.10999 5.18999 -3.49317
568 1 3.61384 9.04527 5.19079 -3.48081
569 1 7.02914 7.15046 3.3232 -3.50386
570 1 8.77641 8.95002 3.40827 -3.45083
571 1 8.78906 7.26716 5.12418 -3.47423
572 1 7.0303 8.88394 5.06147 -3.47083
573 1 10.746 7.23436 3.43865 -3.50392
574 1 12.5972 9.14398 3.42315 -3.43613
575 1 12.5459 7.22722 5.03865 -3.48161
576 1 10.7737 8.96127 5.25059 -3.5347
577 1 14.5909 7.12623 3.38309 -3.2915
578 1 16.2069 7.3106 5.22675 -2.69515
579 1 14.4576 8.93573 5.15668 -3.13372
580 1 -14.2747 10.5795 3.43577 -2.69434
581 1 -12.4752 12.7357 3.45254 -2.82146
582 1 -12.3766 10.9628 5.1661 -3.36245
583 1 -10.7002 10.8276 3.3556 -3.49441
584 1 -8.79507 12.7771 3.35423 -3.3906
585 1 -9.15852 10.8614 5.22577 -3.52304
586 1 -10.7283 12.7943 5.16667 -3.32293
587 1 -7.31563 10.8336 3.4041 -3.5166
588 1 -5.42044 12.6462 3.33788 -3.54026
589 1 -5.38224 10.9483 5.2197 -3.50909
590 1 -7.19533 12.7412 5.2159 -3.51287
591 1 -3.51729 10.8435 3.17408 -3.46964
592 1 -1.65119 12.5932 3.25008 -3.52512
593 1 -1.72142 10.8526 5.08567 -3.4746
594 1 -3.40284 12.5115 5.1101 -3.48202
595 1 0.190824 10.9374 3.30596 -3.50256
596 1 1.89449 12.7889 3.43667 -3.51053
597 1 1.75902 10.9092 5.17863 -3.50537
598 1 0.116581 12.6975 5.23824 -3.50418
599 1 3.65253 10.9114 3.28718 -3.51661
600 1 5.2714 12.6331 3.24831 -3.48866
601 1 5.3771 10.8589 5.20023 -3.52539
602 1 3.64807 12.6852 5.11062 -3.44301
603 1 7.00765 10.7449 3.25389 -3.52036
604 1 8.86572 12.4638 3.42861 -3.45251
605 1 8.7454 10.7941 5.13903 -3.49273
606 1 6.9526 12.7426 5.17555 -3.4922
607 1 10.6751 10.8275 3.57965 -3.49173
608 1 12.5192 12.5037 3.49452 -2.92368
609 1 12.6089 10.8484 5.28856 -3.32233
610 1 10.518 12.5471 5.21277 -3.20392
611 1 14.3821 10.7934 3.5613 -2.70697
612 1 -10.5141 14.3701 3.16814 -2.75821
613 1 -8.93603 14.5261 5.28692 -3.12049
614 1 -7.25691 14.5591 3.34657 -3.32238
615 1 -5.5264 16.2439 3.41881 -2.94814
616 1 -5.21531 14.4119 5.21709 -3.4724
617 1 -6.96676 16.202 5.49623 -2.71706
618 1 -3.46326 14.3792 3.34783 -3.45275
619 1 -1.72277 16.3704 3.32332 -3.12732
620 1 -1.82463 14.43 5.19373 -3.47672
621 1 -3.62941 16.1706 4.89214 -2.99769
622 1 0.06247 14.5388 3.491 -3.43946
623 1 2.10013 16.4304 3.44175 -3.10468
624 1 1.80164 14.5785 5.0947 -3.40084
625 1 0.137921 16.2051 5.07059 -3.15765
626 1 3.62211 14.5742 3.22579 -3.42894
627 1 5.31749 16.2536 3.35552 -2.99996
628 1 5.1926 14.313 5.11923 -3.34895
629 1 3.62277 16.1889 5.40711 -3.03844
630 1 7.0676 14.3382 3.18176 -3.35663
631 1 8.81785 14.196 5.16748 -3.09393
632 1 7.07766 15.9556 5.16486 -2.77762
633 1 10.7497 14.16 3.43595 -2.76256
634 1 0.251256 17.9405 3.27465 -2.3423
635 1 -5.42062 -16.3029 6.91825 -2.99359
636 1 -7.24075 -16.2909 8.94353 -2.7228
637 1 -1.97138 -16.2084 6.97745 -3.12556
638 1 -3.81532 -16.1306 8.83494 -3.06099
639 1 -0.178825 -17.9163 6.99028 -2.31158
640 1 1.88835 -16.5069 6.85766 -3.05906
641 1 -0.174837 -16.4023 8.8679 -3.20017
642 1 5.43663 -16.3481 7.02615 -2.98286
643 1 3.39594 -16.4332 8.88322 -2.98856
644 1 7.22071 -16.2707 8.81077 -2.69208
645 1 -12.6429 -12.5481 7.24327 -2.84573
646 1 -10.8616 -14.2472 7.00291 -2.79754
647 1 -8.9803 -12.617 7.12945 -3.38798
648 1 -9.08616 -14.6931 8.78151 -3.09787
649 1 -10.8197 -12.5125 8.7897 -3.28136
650 1 -7.34177 -14.518 7.07481 -3.38269
651 1 -5.52802 -12.7641 6.98072 -3.47889
652 1 -5.55509 -14.4911 8.8811 -3.46033
653 1 -7.30484 -12.7786 8.96914 -3.49702
654 1 -3.63774 -14.4981 6.90747 -3.45645
655 1 -1.73072 -12.7209 7.05601 -3.50391
656 1 -1.88174 -14.5374 8.80367 -3.46046
657 1 -3.67765 -12.7892 8.90824 -3.48787
658 1 -0.0311273 -14.6168 7.0358 -3.54284
659 1 1.73306 -12.8359 7.00199 -3.49488
660 1 1.80379 -14.6539 8.81459 -3.4748
661 1 0.0282362 -12.6944 8.75212 -3.44137
662 1 3.53766 -14.7209 6.89986 -3.45525
663 1 5.26206 -12.8919 7.08545 -3.46363
664 1 5.36342 -14.5872 8.69143 -3.40725
665 1 3.46976 -12.7265 8.69191 -3.50259
666 1 7.19204 -14.5502 6.96013 -3.36317
667 1 9.05448 -12.5686 6.96328 -3.43367
668 1 9.03519 -14.3494 8.79644 -3.12482
669 1 7.28444 -12.763 8.73093 -3.48841
670 1 10.6864 -14.4007 6.84805 -2.73481
671 1 12.5702 -12.6344 6.8056 -2.88048
672 1 10.8507 -12.5905 8.72779 -3.34376
673 1 -14.3268 -10.8012 7.10987 -2.7129
674 1 -12.674 -8.98147 6.99834 -3.49557
675 1 -12.6212 -10.7821 8.86986 -3.27511
676 1 -14.4364 -8.76497 8.9133 -3.11939
677 1 -10.7862 -10.97 7.00116 -3.44027
678 1 -8.9875 -9.1209 7.03654 -3.50725
679 1 -8.92499 -10.8296 8.7566 -3.47162
680 1 -10.8556 -9.04766 8.85613 -3.53382
681 1 -7.14974 -11.0006 7.06075 -3.46144
682 1 -5.45118 -9.14987 7.10705 -3.53921
683 1 -5.3522 -11.0247 8.80808 -3.50115
684 1 -7.19755 -9.09139 8.89995 -3.48332
685 1 -3.71753 -11.0232 7.06883 -3.51669
686 1 -1.81313 -9.15601 6.99395 -3.53011
687 1 -1.85344 -10.9362 8.76713 -3.50678
688 1 -3.51793 -9.03037 8.88275 -3.49811
689 1 -0.0640852 -11.0629 7.00833 -3.46066
690 1 1.76871 -9.18333 7.08766 -3.5124
691 1 1.60322 -10.9154 8.84639 -3.47502
692 1 -0.119463 -9.12306 8.84044 -3.50629
693 1 3.47598 -10.9601 6.92591 -3.5114
694 1 5.32689 -8.98601 7.03755 -3.49001
695 1 5.41866 -11.0287 8.80978 -3.47938
696 1 3.66697 -9.22111 8.90583 -3.51162
697 1 6.94681 -10.9499 6.9033 -3.47303
698 1 9.03537 -8.90301 7.04588 -3.45915
699 1 8.95258 -10.8928 8.63771 -3.51518
700 1 7.18459 -9.11253 8.87094 -3.51387
701 1 10.7823 -10.7984 6.8275 -3.45175
702 1 12.4603 -9.11407 6.98426 -3.42079
703 1 12.5112 -10.8087 8.76978 -3.34752
704 1 10.6527 -8.95298 8.99237 -3.53902
705 1 14.2019 -10.6394 6.79861 -2.74222
706 1 14.272 -9.06521 8.79851 -3.12879
707 1 -16.2469 -5.22388 6.92992 -2.92471
708 1 -15.9918 -6.84543 8.86512 -2.7492
709 1 -14.4825 -7.19852 6.89402 -3.33689
710 1 -12.5172 -5.34135 6.9403 -3.49342
711 1 -12.6169 -7.08172 8.74972 -3.51858
712 1 -14.2685 -5.29033 8.99788 -3.34459
713 1 -10.689 -7.08006 7.0906 -3.51295
714 1 -8.9234 -5.37869 7.15034 -3.51181
715 1 -8.93331 -7.33002 8.90697 -3.4958
716 1 -10.7897 -5.31497 8.86067 -3.5026
717 1 -7.24559 -7.23991 7.19134 -3.50458
718 1 -5.48852 -5.48822 7.06276 -3.50946
719 1 -5.25615 -7.3002 9.00107 -3.4779
720 1 -7.00388 -5.41853 9.08887 -3.50484
721 1 -3.71744 -7.28748 7.0259 -3.48763
722 1 -1.78376 -5.60575 7.08512 -3.51361
723 1 -1.80183 -7.26416 8.85511 -3.48821
724 1 -3.54549 -5.46269 8.87162 -3.51618
725 1 0.0243618 -7.3812 7.04915 -3.51198
726 1 1.74416 -5.37187 6.96333 -3.51861
727 1 1.78926 -7.41996 8.85488 -3.47406
728 1 0.0661063 -5.53599 8.93284 -3.51457
729 1 3.57158 -7.29259 7.04383 -3.51706
730 1 5.29316 -5.41639 6.90707 -3.51138
731 1 5.47151 -7.12047 8.86755 -3.47555
732 1 3.71533 -5.49276 8.84188 -3.48762
733 1 7.11066 -7.19711 7.02647 -3.49762
734 1 9.0271 -5.4713 6.94563 -3.49824
735 1 8.84696 -7.16762 8.77127 -3.50815
736 1 7.05096 -5.30661 8.66922 -3.47568
737 1 10.7303 -7.29309 7.02799 -3.47242
738 1 12.518 -5.48893 7.0304 -3.52736
739 1 12.5023 -7.31284 8.83486 -3.51356
740 1 10.6758 -5.58619 8.77031 -3.45651
741 1 14.2782 -7.22392 7.03233 -3.36681
742 1 16.0582 -5.50344 7.045 -2.99622
743 1 16.077 -7.21408 8.94932 -2.67556
744 1 14.2835 -5.44634 8.87854 -3.44217
745 1 -16.2644 -1.62933 6.93015 -3.10812