ITEM: TIMESTEP
88000
ITEM: NUMBER OF ATOMS
3804
ITEM: BOX BOUNDS ss ss pp
-1.7486739467101408e+01 1.7549642146594405e+01
-1.7527880442415249e+01 1.7479131944010881e+01
-1.9087200000000000e+00 4.5288720000000005e+01
ITEM: ATOMS id type x y z c_peratom
1 1 -5.21304 -15.7981 45.2268 -3.02757
2 1 -6.66938 -15.9108 0.0534138 -2.73784
3 1 -1.90457 -15.8556 -1.98597 -3.02689
4 1 -3.49994 -15.8303 -0.0633863 -3.0221
5 1 0.0360683 -17.1763 -1.92526 -2.43194
6 1 2.09506 -15.9194 -1.59468 -3.06592
7 1 0.210813 -15.8745 0.273146 -3.20421
8 1 5.26015 -15.5739 -1.91582 -2.99337
9 1 3.72704 -15.8449 0.149961 -3.01712
10 1 6.87076 -15.476 0.249975 -2.7683
11 1 -12.216 -12.4913 45.2337 -2.79615
12 1 -10.279 -14.1202 -2.01089 -2.73805
13 1 -8.69659 -12.2948 -1.98716 -3.44196
14 1 -8.80145 -14.4215 0.147201 -3.02506
15 1 -10.4068 -12.3979 0.0313083 -3.35964
16 1 -7.16706 -14.2801 -1.83682 -3.32136
17 1 -5.21208 -12.6533 45.4333 -3.41363
18 1 -5.07555 -14.1285 0.116124 -3.34656
19 1 -7.04351 -12.3695 0.0643538 -3.49422
20 1 -3.45386 -14.0923 45.3155 -3.36424
21 1 -1.61255 -12.4613 -2.10282 -3.46924
22 1 -1.61075 -14.2233 0.0941585 -3.45424
23 1 -3.47192 -12.4059 0.0759159 -3.41557
24 1 0.0870772 -14.3527 -1.78768 -3.52864
25 1 1.66678 -12.493 -1.77266 -3.48385
26 1 1.94888 -14.0905 0.200733 -3.46616
27 1 0.0166498 -12.4993 0.159547 -3.49231
28 1 3.57476 -14.0235 -1.69434 -3.34122
29 1 5.30263 -12.3237 45.3867 -3.4831
30 1 5.1206 -13.8758 0.138875 -3.38731
31 1 3.40465 -12.2257 0.224784 -3.35219
32 1 7.15015 -14.008 -1.97306 -3.32511
33 1 8.80551 -12.0378 -1.74932 -3.41692
34 1 8.89248 -14.078 0.306252 -2.99881
35 1 7.18164 -12.324 0.18486 -3.53197
36 1 10.193 -13.9501 45.3841 -2.66965
37 1 12.081 -12.0651 -1.74448 -2.86717
38 1 10.4267 -11.9943 0.194862 -3.35666
39 1 -13.9447 -10.7278 45.435 -2.67035
40 1 -12.3743 -8.92686 -1.85592 -3.42686
41 1 -12.2634 -10.5756 0.0635637 -3.32221
42 1 -14.2186 -8.91581 -0.0701161 -3.04199
43 1 -10.646 -10.7315 45.3806 -3.43974
44 1 -8.90716 -8.93431 45.4115 -3.44099
45 1 -8.65011 -10.5416 0.0731642 -3.47804
46 1 -10.4925 -8.86784 0.147306 -3.49204
47 1 -6.89418 -10.612 -1.83107 -3.51259
48 1 -5.0874 -8.86945 -1.84597 -3.49576
49 1 -5.15716 -10.7498 -0.027275 -3.47526
50 1 -6.88918 -8.80129 0.0692859 -3.47195
51 1 -3.45518 -10.9413 -1.92014 -3.46559
52 1 -1.75366 -8.83945 -1.8117 -3.50196
53 1 -1.77912 -10.7409 0.063866 -3.48886
54 1 -3.54912 -8.89675 0.104417 -3.50961
55 1 0.0456116 -10.6275 -1.85678 -3.50498
56 1 1.57228 -8.59447 -1.86527 -3.46565
57 1 1.67479 -10.4072 0.103224 -3.47365
58 1 -0.0976197 -8.82634 0.141684 -3.47457
59 1 3.3477 -10.5819 45.4343 -3.53315
60 1 5.10842 -8.76651 -1.88806 -3.48905
61 1 5.15769 -10.7065 0.0114557 -3.46537
62 1 3.49805 -8.69514 0.0837189 -3.50236
63 1 6.83326 -10.441 45.2459 -3.46777
64 1 8.58614 -8.71343 45.2408 -3.48015
65 1 8.66168 -10.3197 0.078988 -3.47294
66 1 6.82314 -8.7658 0.0113939 -3.49754
67 1 10.4512 -10.3088 -1.93877 -3.44774
68 1 12.1257 -8.63839 45.1339 -3.41362
69 1 12.2622 -10.1709 0.018057 -3.35118
70 1 10.4061 -8.52498 0.0178884 -3.50062
71 1 13.7228 -10.3216 -1.97598 -2.75492
72 1 14.1709 -8.66797 -0.0344084 -3.06771
73 1 -15.8761 -5.01764 -1.96599 -2.90572
74 1 -15.7464 -6.83127 0.0311819 -2.69996
75 1 -14.1797 -7.0101 -1.95006 -3.29633
76 1 -12.0664 -5.23916 45.3515 -3.45721
77 1 -12.4027 -7.23116 0.0884321 -3.48288
78 1 -13.9166 -5.32952 0.00789527 -3.38776
79 1 -10.5395 -7.28528 -1.78215 -3.43674
80 1 -8.69436 -5.3279 -1.80332 -3.52443
81 1 -8.57612 -7.08842 0.0604178 -3.48829
82 1 -10.5049 -5.33378 0.0949409 -3.51172
83 1 -7.07742 -7.23118 45.3161 -3.48489
84 1 -5.2388 -5.2919 45.294 -3.51661
85 1 -5.29515 -7.00279 0.164476 -3.47647
86 1 -6.93366 -5.23635 0.0686486 -3.46971
87 1 -3.35291 -7.01337 45.2351 -3.48062
88 1 -1.75429 -5.19371 -2.02281 -3.4921
89 1 -1.75101 -6.96928 0.0644924 -3.48709
90 1 -3.46436 -5.22141 0.0337604 -3.48374
91 1 -0.147425 -7.03177 -1.81851 -3.45341
92 1 1.59331 -5.12936 -1.83732 -3.48595
93 1 1.79181 -6.90765 0.140923 -3.49424
94 1 0.0202312 -5.22158 0.0622738 -3.49321
95 1 3.32906 -6.85635 -1.86011 -3.5021
96 1 5.26133 -5.18246 45.2645 -3.51517
97 1 5.09998 -6.88608 0.0813577 -3.47982
98 1 3.48688 -5.15696 0.0186587 -3.47061
99 1 6.93428 -6.99111 -2.00886 -3.48557
100 1 8.77242 -5.2014 45.247 -3.4729
101 1 8.51489 -6.94904 0.0717113 -3.51052
102 1 6.91582 -5.0952 0.0723088 -3.48533
103 1 10.2655 -6.94558 45.2758 -3.44983
104 1 12.1306 -5.31922 45.1424 -3.49424
105 1 12.2866 -7.01596 -0.152761 -3.47776
106 1 10.4363 -5.2507 0.120923 -3.4886
107 1 14.2154 -7.17132 45.1814 -3.34464
108 1 15.8397 -5.23232 45.106 -2.99769
109 1 15.8165 -6.92338 -0.0708419 -2.6675
110 1 14.0494 -5.37329 -0.206742 -3.39015
111 1 -15.7628 -2.00244 -1.8947 -3.08774
112 1 -15.6515 -3.57466 -0.0539345 -3.01175
113 1 -13.9678 -3.63601 45.2278 -3.41076
114 1 -12.246 -1.77161 45.3517 -3.50459
115 1 -12.2517 -3.51712 0.00204821 -3.51276
116 1 -14.0836 -1.7073 -0.0225412 -3.46022
117 1 -10.4294 -3.56494 -1.95512 -3.44726
118 1 -8.85721 -1.71014 -1.91378 -3.47006
119 1 -8.71975 -3.46144 0.0719546 -3.53124
120 1 -10.4905 -1.60047 -0.0015878 -3.51008
121 1 -7.07804 -3.37592 -1.85598 -3.50225
122 1 -5.24719 -1.6744 45.3453 -3.50977
123 1 -5.23287 -3.55044 0.0906046 -3.49027
124 1 -6.9964 -1.62425 0.185001 -3.44933
125 1 -3.53007 -3.53749 45.3026 -3.50051
126 1 -1.82997 -1.68872 -1.84688 -3.52501
127 1 -1.89988 -3.37138 0.0587234 -3.5239
128 1 -3.63914 -1.61967 -0.00289415 -3.52031
129 1 0.0133202 -3.40379 -1.77667 -3.43621
130 1 1.70679 -1.65365 -1.95178 -3.46848
131 1 1.6019 -3.32791 0.0916712 -3.50784
132 1 -0.0849706 -1.47314 -0.0339533 -3.48685
133 1 3.46178 -3.35198 -1.79332 -3.53156
134 1 5.20128 -1.5289 45.3532 -3.47523
135 1 5.15938 -3.45541 0.111035 -3.44367
136 1 3.39143 -1.68426 0.206811 -3.45396
137 1 6.97612 -3.29305 -2.09747 -3.48124
138 1 8.91192 -1.61281 45.3558 -3.46917
139 1 8.79615 -3.43803 0.0335336 -3.49056
140 1 6.97197 -1.75905 0.197528 -3.50805
141 1 10.6078 -3.51813 45.1865 -3.47488
142 1 12.3406 -1.81187 45.3689 -3.46824
143 1 12.2057 -3.6942 0.0156589 -3.49318
144 1 10.6086 -1.85122 0.075104 -3.47578
145 1 13.962 -3.6046 45.2468 -3.43527
146 1 15.9553 -2.20181 45.1642 -3.0543
147 1 15.8853 -3.77622 0.0554708 -3.01571
148 1 14.0694 -2.05425 0.0897336 -3.47255
149 1 -17.2329 -0.021632 44.9766 -2.31976
150 1 -15.6041 1.87566 45.0559 -3.14753
151 1 -15.8453 0.0831347 0.0315167 -3.19013
152 1 -14.0279 -0.0242254 -1.9816 -3.50828
153 1 -12.2857 1.90263 45.1685 -3.46389
154 1 -12.4312 0.109486 0.029752 -3.48994
155 1 -14.155 1.83448 0.094581 -3.38692
156 1 -10.5747 0.0333975 -1.94526 -3.50847
157 1 -8.75965 1.9538 45.3701 -3.49467
158 1 -8.70327 0.123762 0.0305047 -3.48378
159 1 -10.5423 1.83272 0.00140138 -3.51748
160 1 -7.12911 0.131709 -1.83899 -3.50459
161 1 -5.45721 2.02388 -1.79823 -3.47009
162 1 -5.43468 0.164689 0.0321487 -3.48073
163 1 -7.11058 1.99213 0.160409 -3.51218
164 1 -3.60614 0.203188 -1.9257 -3.50482
165 1 -1.83372 1.91653 45.4518 -3.45758
166 1 -1.81969 0.111132 0.184176 -3.46632
167 1 -3.65243 1.8008 0.0335874 -3.51512
168 1 0.0317712 0.297823 -1.83967 -3.41376
169 1 1.63738 1.92866 -1.94328 -3.4218
170 1 1.72173 0.0882046 0.0999962 -3.48041
171 1 -0.0807695 1.74991 0.0803953 -3.45712
172 1 3.41893 0.210876 -1.85075 -3.48114
173 1 5.26594 1.73902 -1.80845 -3.48014
174 1 5.10909 0.0195905 -0.00936709 -3.45487
175 1 3.50368 1.79169 0.0874149 -3.48038
176 1 7.1039 0.0366587 -1.88128 -3.44837
177 1 8.84733 1.52417 -1.77006 -3.44488
178 1 8.95168 -0.0869698 0.119125 -3.47276
179 1 7.08402 1.69086 0.083607 -3.53167
180 1 10.6693 -0.0755097 -1.92943 -3.43183
181 1 12.4061 1.5947 -1.68309 -3.4588
182 1 12.4338 -0.263914 0.118412 -3.47742
183 1 10.6373 1.61493 0.0584771 -3.50593
184 1 14.2564 -0.181129 45.2346 -3.52565
185 1 15.7896 1.90791 45.2141 -3.09145
186 1 15.7658 -0.171198 -0.0370435 -3.11613
187 1 14.1581 1.47357 -0.0643029 -3.37569
188 1 17.1164 -0.00483668 45.2308 -2.44505
189 1 -15.8592 5.292 45.067 -2.97528
190 1 -15.7071 3.63809 -0.208511 -3.02836
191 1 -13.9463 3.6602 45.2389 -3.45293
192 1 -12.1653 5.4842 45.2926 -3.47804
193 1 -12.3513 3.5751 0.0702105 -3.53492
194 1 -14.0857 5.53295 -0.0262286 -3.37285
195 1 -10.5843 3.56528 -1.8393 -3.48055
196 1 -8.81123 5.46079 -1.89434 -3.53084
197 1 -8.90761 3.75606 0.102002 -3.49065
198 1 -10.585 5.47748 0.137937 -3.49117
199 1 -7.01719 3.66238 -2.01061 -3.37154
200 1 -5.34601 5.35714 -1.91195 -3.49082
201 1 -5.3534 3.6919 0.10199 -3.4962
202 1 -7.07242 5.41954 0.11047 -3.50331
203 1 -3.47128 3.74269 45.3225 -3.51449
204 1 -1.68182 5.45439 45.2681 -3.48692
205 1 -1.72645 3.54636 0.0273251 -3.4995
206 1 -3.3906 5.32739 0.0160208 -3.4982
207 1 -0.0972818 3.59339 -1.93569 -3.48889
208 1 1.65398 5.32956 -1.87162 -3.5031
209 1 1.61319 3.52013 0.0899668 -3.51899
210 1 0.00834264 5.41588 0.113868 -3.48481
211 1 3.51914 3.56632 45.3832 -3.54108
212 1 5.3811 5.16484 -1.81863 -3.4691
213 1 5.29646 3.44441 0.160147 -3.47799
214 1 3.45081 5.20346 0.123386 -3.50909
215 1 7.02091 3.32377 -1.89628 -3.51046
216 1 8.74457 5.18567 -1.86136 -3.47632
217 1 8.77196 3.48754 0.0163322 -3.49233
218 1 6.99243 5.06729 0.0927988 -3.45648
219 1 10.5095 3.4344 -1.77038 -3.5369
220 1 12.2255 5.20718 -1.85653 -3.47861
221 1 12.3899 3.33342 0.118527 -3.48336
222 1 10.6408 5.14119 0.115222 -3.49857
223 1 13.9511 3.44383 -1.81978 -3.41716
224 1 15.7826 5.07456 -1.76424 -2.99984
225 1 15.7368 3.391 0.135447 -3.0962
226 1 13.9282 5.20385 0.107927 -3.4267
227 1 -15.9598 6.79332 0.0106264 -2.61803
228 1 -14.0891 7.26775 -1.87265 -3.38816
229 1 -12.3659 8.94333 45.3278 -3.44645
230 1 -12.3542 7.18572 0.148252 -3.45798
231 1 -14.2037 8.92167 0.267833 -3.0754
232 1 -10.6266 7.23976 45.2849 -3.42507
233 1 -8.89418 8.87739 -1.80787 -3.48246
234 1 -8.77924 7.22286 0.119031 -3.50518
235 1 -10.5892 8.87009 0.207285 -3.4548
236 1 -7.11899 7.21246 -1.87614 -3.48675
237 1 -5.34034 8.93067 -1.80158 -3.48205
238 1 -5.29025 7.16511 0.176598 -3.50835
239 1 -7.00256 8.89348 0.156354 -3.46711
240 1 -3.44339 7.184 -1.72672 -3.52066
241 1 -1.65712 8.84958 -1.91398 -3.47687
242 1 -1.61547 7.10695 0.064222 -3.44331
243 1 -3.56245 9.04751 0.168526 -3.5061
244 1 0.0735639 7.0628 -1.96806 -3.45917
245 1 1.99655 8.74701 45.3996 -3.50472
246 1 1.76881 7.14538 0.177559 -3.48846
247 1 0.008597 8.78824 -0.0157296 -3.39501
248 1 3.65915 6.83632 -1.75657 -3.47538
249 1 5.25748 8.64669 -1.84325 -3.47925
250 1 5.2199 6.978 0.249398 -3.50348
251 1 3.46291 8.86288 0.105025 -3.43501
252 1 7.06545 6.9386 -1.90534 -3.50175
253 1 8.8041 8.65447 45.2953 -3.50065
254 1 8.93 6.82835 -0.00978919 -3.48324
255 1 7.08089 8.63392 0.0574931 -3.51184
256 1 10.4614 6.78914 -1.97129 -3.44179
257 1 12.2909 8.59497 45.3596 -3.44949
258 1 12.5016 7.14547 0.0801306 -3.40934
259 1 10.5136 8.79461 0.0105852 -3.46027
260 1 14.192 6.90782 -1.79482 -3.38012
261 1 15.879 6.50275 0.186279 -2.74729
262 1 14.3384 8.54323 0.157211 -3.01753
263 1 -14.3223 10.3631 -1.70128 -2.64651
264 1 -12.6266 12.1557 -1.74724 -2.75919
265 1 -12.3189 10.5251 0.0828779 -3.30299
266 1 -10.4889 11.0019 -1.71445 -3.4537
267 1 -8.66878 12.6044 -1.80294 -3.3416
268 1 -8.79094 10.5323 0.326359 -3.47582
269 1 -10.7138 12.5543 0.388013 -3.22847
270 1 -7.10142 10.595 -1.9185 -3.4887
271 1 -5.34119 12.3018 45.5075 -3.48359
272 1 -5.31153 10.653 0.144868 -3.44317
273 1 -7.10702 12.3334 0.0994544 -3.41354
274 1 -3.43622 10.5402 -1.96508 -3.50817
275 1 -1.65027 12.2327 -2.02813 -3.50322
276 1 -1.47082 10.5329 -0.012381 -3.402
277 1 -3.40917 12.2515 0.151033 -3.50575
278 1 0.215552 10.5418 45.2683 -3.49238
279 1 1.6866 12.4742 45.3106 -3.46072
280 1 1.84978 10.6967 -0.0359184 -3.51763
281 1 0.0229229 12.3458 -0.111704 -3.40778
282 1 3.67478 10.5565 -1.88242 -3.5226
283 1 5.51494 12.3538 -1.86411 -3.52448
284 1 5.23315 10.4701 0.150471 -3.48618
285 1 3.70283 12.4513 0.018713 -3.51486
286 1 6.93427 10.3282 -1.81861 -3.47175
287 1 8.68474 12.0428 -2.02722 -3.37387
288 1 8.81449 10.4983 0.0654874 -3.49075
289 1 7.12911 12.3619 0.040504 -3.49745
290 1 10.5584 10.3036 45.219 -3.44382
291 1 12.3632 11.8651 45.2266 -2.86224
292 1 12.4072 10.3985 0.0536044 -3.34523
293 1 10.6229 12.1947 0.0437663 -3.27028
294 1 14.1862 10.0806 -1.77979 -2.70838
295 1 -10.6159 14.0315 -1.62568 -2.694
296 1 -8.51849 14.208 0.0973163 -3.06484
297 1 -6.93092 14.283 45.3035 -3.30815
298 1 -5.06654 15.7605 45.2176 -2.98489
299 1 -5.26963 13.9534 0.1574 -3.44365
300 1 -6.50659 15.9386 0.15624 -2.73062
301 1 -3.49126 13.8372 -1.86097 -3.46573
302 1 -1.96666 15.7987 45.2033 -3.12077
303 1 -1.75731 14.0678 0.0863682 -3.46081
304 1 -3.6545 15.8057 -0.00487644 -3.05142
305 1 -0.0457816 14.206 45.2246 -3.48615
306 1 1.84759 15.7332 45.2895 -3.11349
307 1 1.78913 14.0944 -0.0115927 -3.4625
308 1 -0.0601934 15.869 0.0760541 -3.15472
309 1 3.85185 14.1824 -1.94835 -3.39964
310 1 5.6112 15.7403 -1.91617 -2.93155
311 1 5.50588 14.1203 0.0669486 -3.40813
312 1 3.69993 15.7986 -0.0254718 -3.00925
313 1 7.43713 14.1903 45.4357 -3.34219
314 1 9.22854 14.118 0.153503 -2.9549
315 1 7.31969 15.7286 0.181019 -2.67442
316 1 10.3932 13.6134 45.3044 -2.78487
317 1 0.018097 17.2875 -1.83452 -2.37776
318 1 -4.94738 -15.9501 2.03013 -3.03518
319 1 -6.5501 -15.9454 3.90361 -2.71171
320 1 -1.94269 -15.9417 1.93678 -3.0546
321 1 -3.27987 -15.8119 4.06366 -3.04279
322 1 0.0123791 -17.1772 2.36064 -2.40886
323 1 2.11308 -15.9984 2.07763 -3.10422
324 1 0.325192 -15.7969 4.12798 -3.12962
325 1 5.4662 -15.7912 2.19188 -2.95979
326 1 3.67068 -15.9913 4.10199 -3.01598
327 1 7.3964 -15.5612 4.0992 -2.66016
328 1 -12.1308 -12.2273 1.93509 -2.86182
329 1 -10.5163 -14.0471 1.93112 -2.64671
330 1 -8.57989 -12.4488 1.91704 -3.44899
331 1 -8.3686 -14.308 3.89869 -3.06366
332 1 -10.2795 -12.5337 3.96315 -3.34641
333 1 -6.86157 -14.1645 1.92092 -3.34961
334 1 -5.17101 -12.4832 2.0778 -3.43856
335 1 -5.01781 -14.1802 3.96312 -3.3954
336 1 -6.93454 -12.4203 3.88118 -3.51385
337 1 -3.43551 -14.0392 2.09053 -3.38769
338 1 -1.67455 -12.4013 2.00183 -3.49315
339 1 -1.58245 -14.1617 3.93262 -3.45216
340 1 -3.40276 -12.3629 3.93912 -3.46832
341 1 0.282599 -14.1223 2.17305 -3.5116
342 1 1.85132 -12.2788 2.00196 -3.43374
343 1 1.94872 -14.154 3.97695 -3.36727
344 1 0.0838649 -12.4249 4.02238 -3.50186
345 1 3.63185 -14.1017 2.24987 -3.46935
346 1 5.29339 -12.3066 2.11971 -3.42718
347 1 5.40148 -14.0881 4.24687 -3.3927
348 1 3.578 -12.4592 4.35011 -3.40442
349 1 7.14587 -13.9311 2.20479 -3.34111
350 1 8.75822 -11.9729 2.20516 -3.4689
351 1 8.96884 -13.4386 4.23384 -3.13596
352 1 6.91149 -12.2 3.92306 -3.44562
353 1 10.4862 -13.6325 2.17139 -2.7248
354 1 12.311 -11.7764 1.87936 -2.85281
355 1 10.7679 -11.7051 4.00701 -3.36741
356 1 -13.9932 -10.4899 2.046 -2.68693
357 1 -12.2511 -8.91871 2.18681 -3.41874
358 1 -12.1914 -10.7522 4.06879 -3.3509
359 1 -14.1524 -8.98666 4.08902 -3.07994
360 1 -10.3637 -10.5643 2.08438 -3.47265
361 1 -8.62784 -8.87622 1.98624 -3.51592
362 1 -8.63482 -10.5498 3.95426 -3.4724
363 1 -10.3437 -8.91441 4.03427 -3.49088
364 1 -6.75524 -10.664 2.04367 -3.51754
365 1 -5.13114 -8.83119 2.16107 -3.4909
366 1 -5.06592 -10.4911 4.07848 -3.50548
367 1 -6.88122 -8.89691 3.98242 -3.42639
368 1 -3.42491 -10.6963 1.9429 -3.51507
369 1 -1.74286 -8.76827 2.03106 -3.49205
370 1 -1.86566 -10.6151 3.97688 -3.48156
371 1 -3.48381 -8.65399 3.98071 -3.47209
372 1 0.0392746 -10.5682 2.04967 -3.51488
373 1 1.86659 -8.85284 2.13693 -3.51028
374 1 1.7015 -10.5036 4.05684 -3.5201
375 1 -0.202025 -8.86411 4.08534 -3.47583
376 1 3.56281 -10.6235 2.10845 -3.44235
377 1 5.16077 -8.65016 2.08215 -3.51626
378 1 5.12914 -10.4978 4.05787 -3.47894
379 1 3.54598 -8.62816 4.17265 -3.45585
380 1 6.76327 -10.4845 1.89426 -3.45947
381 1 8.54387 -8.72822 2.01421 -3.50705
382 1 8.61311 -10.283 4.11149 -3.46944
383 1 6.82883 -8.79214 4.03309 -3.45477
384 1 10.5226 -10.1769 1.98507 -3.47924
385 1 12.2708 -8.35382 1.93343 -3.44339
386 1 12.4981 -9.96118 3.85976 -3.34031
387 1 10.3842 -8.62073 4.07695 -3.49901
388 1 14.0555 -10.1279 1.92106 -2.73206
389 1 14.4088 -8.33875 3.86084 -3.02844
390 1 -15.7112 -5.30736 2.08338 -2.95274
391 1 -15.661 -6.99526 4.20703 -2.69979
392 1 -14.1587 -7.31456 2.13672 -3.32709
393 1 -12.2838 -5.49864 1.91663 -3.49299
394 1 -12.2418 -7.24101 3.96459 -3.51184
395 1 -13.9573 -5.32745 4.10247 -3.38916
396 1 -10.4754 -7.08925 2.1179 -3.46129
397 1 -8.83785 -5.39229 1.98169 -3.45023
398 1 -8.53986 -7.17808 4.10213 -3.47396
399 1 -10.4578 -5.47716 4.03398 -3.50268
400 1 -6.94648 -7.02178 2.06382 -3.52418
401 1 -5.12111 -5.18033 1.99633 -3.48447
402 1 -5.29703 -7.13328 4.07941 -3.46779
403 1 -7.02261 -5.32536 3.92228 -3.46435
404 1 -3.36981 -6.96852 2.0491 -3.48998
405 1 -1.65049 -5.06989 1.97661 -3.48147
406 1 -1.68273 -6.90876 3.93983 -3.4349
407 1 -3.42615 -5.28071 3.92432 -3.4797
408 1 -0.0154161 -6.99475 1.99265 -3.51664
409 1 1.69981 -5.22611 1.97469 -3.48437
410 1 1.73054 -7.03677 4.04806 -3.53089
411 1 0.00983844 -5.16119 4.01257 -3.48193
412 1 3.44764 -6.83363 2.0713 -3.43367
413 1 5.17213 -5.26609 1.9626 -3.44977
414 1 5.17202 -6.90316 4.2022 -3.4548
415 1 3.51391 -5.2215 3.92917 -3.47448
416 1 6.90809 -6.91087 2.08909 -3.47387
417 1 8.63358 -5.04329 2.03607 -3.39162
418 1 8.55134 -7.05791 4.06959 -3.48754
419 1 6.99218 -5.24876 3.93799 -3.46466
420 1 10.3997 -6.83468 2.0469 -3.47597
421 1 12.3718 -5.48163 1.89602 -3.46788
422 1 12.3482 -7.00659 3.82213 -3.39553
423 1 10.6164 -5.36879 4.0084 -3.49136
424 1 14.4119 -6.9035 1.85196 -3.32661
425 1 16.1139 -5.07344 2.17786 -2.92439
426 1 15.9288 -6.64874 4.17679 -2.72514
427 1 13.9901 -5.19706 3.79154 -3.40586
428 1 -15.8721 -1.88876 1.87228 -3.09801
429 1 -15.6647 -3.60487 3.97471 -2.99715
430 1 -13.9079 -3.5198 1.97933 -3.46693
431 1 -12.2796 -1.64295 1.91744 -3.50047
432 1 -12.2048 -3.61112 3.86279 -3.49589
433 1 -14.0962 -1.76001 3.75738 -3.37694
434 1 -10.5353 -3.61759 1.9758 -3.51795
435 1 -8.75688 -1.7389 1.98528 -3.49855
436 1 -8.82368 -3.61047 3.93968 -3.50316
437 1 -10.5426 -1.72714 3.90362 -3.50694
438 1 -7.12071 -3.66434 2.14203 -3.48819
439 1 -5.356 -1.70385 1.99007 -3.50991
440 1 -5.20997 -3.54701 4.04334 -3.51181
441 1 -7.02811 -1.77131 3.97102 -3.52514
442 1 -3.53406 -3.36579 2.00462 -3.46688
443 1 -1.88093 -1.67262 2.10041 -3.40997
444 1 -1.76013 -3.3592 3.92437 -3.45593
445 1 -3.48291 -1.61265 3.89292 -3.45961
446 1 -0.172653 -3.30002 1.92536 -3.43523
447 1 1.65147 -1.61508 2.0654 -3.51382
448 1 1.7477 -3.47948 3.94825 -3.50438
449 1 -0.108136 -1.67576 4.05239 -3.48924
450 1 3.39466 -3.45069 1.89427 -3.47884
451 1 5.35365 -1.5145 2.10682 -3.48166
452 1 5.23367 -3.46002 4.08039 -3.50162
453 1 3.6153 -1.54995 4.07843 -3.452
454 1 6.99415 -3.45249 2.04804 -3.43429
455 1 8.80691 -1.74021 1.97363 -3.4964
456 1 8.8409 -3.70157 4.22391 -3.42419
457 1 7.20007 -1.78622 4.02799 -3.51554
458 1 10.5255 -3.66631 2.04615 -3.52009
459 1 12.3082 -1.85949 2.05701 -3.512
460 1 12.2314 -3.46498 4.02923 -3.48529
461 1 10.4797 -1.85319 3.99542 -3.47859
462 1 13.9566 -3.69542 1.997 -3.4239
463 1 15.9521 -2.17762 2.02189 -3.12958
464 1 15.8505 -3.64187 4.22497 -3.03585
465 1 14.1463 -1.88235 3.94581 -3.43746
466 1 -17.4725 0.0067165 2.1978 -2.44334
467 1 -15.8788 1.92231 1.83988 -3.13899
468 1 -15.8386 -0.185612 4.13939 -3.1457
469 1 -14.1888 0.0567512 2.05565 -3.51182
470 1 -12.3687 1.78879 1.91497 -3.51406
471 1 -12.3533 0.0121464 3.93499 -3.52151
472 1 -14.3267 1.79078 4.00193 -3.49647
473 1 -10.5154 0.0164475 2.05706 -3.47169
474 1 -8.92678 1.89071 2.04263 -3.51321
475 1 -8.86294 0.0437035 3.92132 -3.46852
476 1 -10.6153 1.69606 3.92089 -3.44958
477 1 -7.11118 0.0207014 2.02081 -3.48884
478 1 -5.4136 1.87308 2.094 -3.49407
479 1 -5.28769 0.0527969 4.02665 -3.48851
480 1 -7.10224 1.80976 3.86956 -3.51802
481 1 -3.66667 0.149382 1.99302 -3.5277
482 1 -1.89592 1.84894 2.10754 -3.46508
483 1 -2.03022 0.312459 3.98647 -3.50907
484 1 -3.87698 1.97503 4.06849 -3.4257
485 1 -0.234766 0.0790199 2.18036 -3.48649
486 1 1.64356 1.75579 2.11693 -3.49423
487 1 1.69372 0.00183947 4.10182 -3.50999
488 1 -0.101414 2.00168 4.08084 -3.43688
489 1 3.51274 0.120196 2.26453 -3.459
490 1 5.28072 1.6776 2.02944 -3.49119
491 1 5.42856 0.0484818 4.06797 -3.47086
492 1 3.58064 1.83195 4.06161 -3.51061
493 1 7.06767 0.124732 1.98867 -3.43266
494 1 8.86115 1.67721 2.13289 -3.49588
495 1 8.8312 -0.0330035 4.07627 -3.46929
496 1 7.09204 1.76318 3.96182 -3.47655
497 1 10.5666 -0.153506 2.07561 -3.44373
498 1 12.354 1.42264 1.97793 -3.51424
499 1 12.3784 -0.316208 4.09883 -3.45467
500 1 10.6507 1.53747 4.02918 -3.49358
501 1 14.3819 -0.263846 2.09482 -3.48623
502 1 15.8702 1.64598 2.08609 -3.07646
503 1 16.2285 -0.287916 4.01787 -3.14441
504 1 14.101 1.40989 4.01893 -3.45623
505 1 17.408 -0.104171 1.78043 -2.36121
506 1 -15.8636 5.35735 1.90517 -2.94448
507 1 -15.6312 3.83424 4.0531 -3.09937
508 1 -14.0353 3.70856 2.00383 -3.47834
509 1 -12.3177 5.52347 1.89873 -3.44049
510 1 -12.4096 3.31242 4.03587 -3.46012
511 1 -13.916 5.37406 3.8535 -3.33527
512 1 -10.661 3.64156 1.97114 -3.52039
513 1 -8.74822 5.60745 2.14189 -3.45098
514 1 -8.97126 3.58753 3.98989 -3.49028
515 1 -10.6152 5.35002 3.97477 -3.50672
516 1 -7.00785 3.76841 2.11708 -3.49778
517 1 -5.18936 5.34131 1.98651 -3.46624
518 1 -5.35498 3.79137 4.05025 -3.46136
519 1 -7.16884 5.45717 4.16256 -3.48749
520 1 -3.56333 3.55299 2.03293 -3.4971
521 1 -1.75297 5.29556 1.99311 -3.50599
522 1 -1.83128 3.58106 4.02429 -3.4636
523 1 -3.48463 5.34144 3.93226 -3.50487
524 1 -0.0251155 3.59443 2.01828 -3.51091
525 1 1.77684 5.31274 1.85319 -3.44069
526 1 1.76362 3.39526 4.01332 -3.41899
527 1 -0.0488293 5.20956 3.99531 -3.52407
528 1 3.39449 3.38124 2.03048 -3.52317
529 1 5.33415 5.11206 1.99633 -3.50635
530 1 5.42069 3.48022 3.83502 -3.44397
531 1 3.42413 5.20747 3.85146 -3.52562
532 1 7.08065 3.41085 1.9564 -3.47186
533 1 8.8345 5.09919 2.0595 -3.5133
534 1 8.8765 3.4285 4.08595 -3.48152
535 1 7.01986 5.17243 4.06826 -3.45468
536 1 10.693 3.32173 1.9999 -3.5263
537 1 12.4534 5.11247 2.09618 -3.43703
538 1 12.3901 3.1599 4.12265 -3.4493
539 1 10.6626 4.92997 3.9622 -3.45623
540 1 14.0484 3.27539 2.09386 -3.44574
541 1 15.7682 4.97509 2.12623 -2.99937
542 1 15.7793 3.26661 4.079 -3.04573
543 1 13.9935 5.11417 3.91523 -3.41097
544 1 -15.7435 6.74193 3.95031 -2.71019
545 1 -14.2114 7.26986 2.09343 -3.32813
546 1 -12.3064 8.73876 2.09091 -3.41505
547 1 -12.3024 7.26912 3.94212 -3.47623
548 1 -14.0443 9.00719 4.03517 -3.10066
549 1 -10.5489 7.06323 2.08284 -3.37084
550 1 -8.9102 8.80865 2.17738 -3.53329
551 1 -9.01185 7.13698 4.14634 -3.49133
552 1 -10.5981 9.03138 4.18247 -3.45648
553 1 -6.9158 7.14079 2.12921 -3.50122
554 1 -5.11384 8.91943 2.28675 -3.48367
555 1 -5.323 7.06751 4.04816 -3.52409
556 1 -7.05552 8.90765 4.11886 -3.47672
557 1 -3.38292 7.14525 2.05019 -3.51708
558 1 -1.87192 9.07363 2.08722 -3.41203
559 1 -1.70038 7.14682 4.03851 -3.49994
560 1 -3.41303 8.81897 4.15223 -3.4566
561 1 -0.0216394 7.18874 2.08109 -3.54844
562 1 1.74704 8.94837 2.08717 -3.46909
563 1 1.63257 7.01169 3.96952 -3.50409
564 1 -0.0428502 8.92044 3.99327 -3.51479
565 1 3.49399 6.94376 2.13332 -3.44046
566 1 5.04599 8.70562 2.00749 -3.45226
567 1 5.19322 7.04179 3.94232 -3.50945
568 1 3.2606 8.78341 3.86671 -3.43758
569 1 7.00942 7.00774 1.93026 -3.49015
570 1 9.03686 8.74236 2.04255 -3.48338
571 1 8.81815 6.76854 4.02313 -3.48424
572 1 7.01941 8.6254 3.77989 -3.48339
573 1 10.6749 6.7422 2.05747 -3.44535
574 1 12.2527 8.62547 2.09197 -3.41274
575 1 12.4598 6.95522 4.09448 -3.46013
576 1 10.5604 8.60067 4.16281 -3.48147
577 1 14.3196 6.90177 2.08134 -3.36193
578 1 15.9296 6.55358 4.03753 -2.71531
579 1 14.3069 8.55539 4.23408 -3.05637
580 1 -13.848 10.7147 2.22918 -2.76021
581 1 -12.2013 12.5659 2.32873 -2.77807
582 1 -12.259 10.7352 4.09125 -3.24965
583 1 -10.7368 10.6466 2.16276 -3.50861
584 1 -8.68629 12.2401 2.27521 -3.39893
585 1 -8.78814 10.5401 4.01477 -3.4279
586 1 -10.4812 12.4034 4.11613 -3.3544
587 1 -7.02144 10.4843 2.26364 -3.45715
588 1 -5.33215 12.2704 2.2211 -3.50524
589 1 -5.2447 10.4865 4.13284 -3.48738
590 1 -7.00686 12.349 4.18916 -3.47967
591 1 -3.42753 10.6621 2.27739 -3.37697
592 1 -1.63926 12.3156 1.84289 -3.44512
593 1 -1.79016 10.6517 4.25494 -3.45759
594 1 -3.54483 12.3349 4.08916 -3.47787
595 1 0.0367214 10.6189 2.15231 -3.43699
596 1 1.68013 12.4522 2.07606 -3.48277
597 1 1.78372 10.6028 3.96378 -3.44128
598 1 -0.0082548 12.4015 4.07656 -3.55292
599 1 3.53501 10.7202 1.94492 -3.53937
600 1 5.47282 12.3332 2.00243 -3.48448
601 1 5.15355 10.5074 3.93108 -3.56134
602 1 3.41861 12.3295 3.94824 -3.48152
603 1 6.84065 10.3859 1.98704 -3.46433
604 1 8.63923 12.1266 2.00272 -3.42537
605 1 8.72176 10.3916 4.02868 -3.45897
606 1 7.10719 12.1988 3.93888 -3.46452
607 1 10.5868 10.5356 1.94847 -3.42784
608 1 12.3714 12.1689 1.85693 -2.76497
609 1 12.5092 10.2149 4.01813 -3.29921
610 1 10.731 11.9802 3.98501 -3.30466
611 1 14.0925 10.0405 2.06523 -2.71044
612 1 -9.95292 14.1486 2.08298 -2.70327
613 1 -8.49615 14.177 3.97106 -3.07539
614 1 -6.8593 14.1424 2.15087 -3.3421
615 1 -4.9476 15.6923 2.12235 -3.02786
616 1 -5.34224 14.0626 3.96394 -3.40688
617 1 -6.69581 16.0341 3.92813 -2.63038
618 1 -3.49119 13.902 2.10458 -3.38343
619 1 -1.99363 15.7797 2.05414 -3.12193
620 1 -1.91227 14.1754 3.9826 -3.43283
621 1 -3.38613 15.9899 4.21262 -2.95764
622 1 0.0389546 14.2523 2.20434 -3.47887
623 1 2.01437 15.9759 1.89755 -3.07314
624 1 1.83046 14.2409 3.83322 -3.42763
625 1 0.0119892 15.8755 4.11886 -3.15186
626 1 3.62366 14.0147 2.01311 -3.47244
627 1 5.22378 15.9086 2.0082 -2.97665
628 1 5.37145 14.0108 3.79434 -3.43091
629 1 3.6775 15.9032 3.95526 -3.02189
630 1 7.26699 14.1388 1.97079 -3.34367
631 1 8.79483 13.9049 4.02898 -3.12208
632 1 6.88944 15.7858 4.00904 -2.69365
633 1 10.4544 13.6383 2.06291 -2.76487
634 1 -0.0595767 17.1608 2.07272 -2.44193
635 1 -4.97227 -16.0057 5.97573 -2.9877
636 1 -6.44635 -16.0644 8.07367 -2.70047
637 1 -1.57969 -15.7547 5.98693 -3.10467
638 1 -3.29372 -16.1064 7.85146 -3.0153
639 1 -0.162857 -17.5064 5.98543 -2.3152
640 1 1.95879 -16.0388 6.16907 -3.11931
641 1 0.0437086 -15.87 7.83696 -3.24793
642 1 5.41888 -15.837 5.82156 -2.92903
643 1 3.70898 -16.0187 7.85318 -2.9865
644 1 7.16276 -15.74 8.10736 -2.59516
645 1 -11.9904 -12.6065 5.76366 -2.83707
646 1 -10.0882 -14.3007 5.85047 -2.70086
647 1 -8.62638 -12.3957 5.88008 -3.40797
648 1 -8.27457 -14.2736 7.71105 -3.08723
649 1 -10.3995 -12.656 7.83609 -3.31499
650 1 -6.78206 -14.2502 5.78418 -3.33128
651 1 -5.25261 -12.4451 5.8277 -3.50531
652 1 -5.04461 -14.1684 7.74631 -3.45974
653 1 -6.84763 -12.4136 7.82347 -3.45083
654 1 -3.43191 -14.1945 5.93367 -3.41628
655 1 -1.5335 -12.5242 5.84408 -3.48454
656 1 -1.59288 -14.1158 8.07784 -3.43257
657 1 -3.40105 -12.4026 7.86356 -3.48099
658 1 0.297009 -14.1706 6.03135 -3.47081
659 1 1.93011 -12.271 6.11829 -3.48751
660 1 1.95298 -14.1953 7.93442 -3.48262
661 1 0.138829 -12.4193 7.73272 -3.4697
662 1 3.63808 -14.1519 6.02097 -3.45661
663 1 5.21567 -12.1389 6.14204 -3.43488
664 1 5.36318 -14.1431 7.90573 -3.45567
665 1 3.67465 -12.3047 7.98843 -3.4868
666 1 7.16191 -13.907 5.99222 -3.36424
667 1 8.90033 -11.823 6.01858 -3.39977
668 1 8.81403 -13.5923 8.00732 -3.09438
669 1 6.94635 -12.1648 8.02712 -3.47061
670 1 10.8858 -13.5571 5.84577 -2.59938
671 1 12.3686 -11.7608 5.93179 -2.84162
672 1 10.589 -11.87 7.81533 -3.35557
673 1 -13.8765 -10.6117 6.06084 -2.68967
674 1 -12.1496 -9.0296 5.89524 -3.45211
675 1 -12.0422 -10.8758 7.74797 -3.30906
676 1 -13.7903 -9.01927 7.90141 -3.11673
677 1 -10.2802 -10.7677 5.9515 -3.45074
678 1 -8.74651 -8.93776 6.03754 -3.48659
679 1 -8.65364 -10.6328 8.0776 -3.50704
680 1 -10.5549 -8.97271 7.86261 -3.49471
681 1 -6.98466 -10.6601 5.90143 -3.49219
682 1 -5.32357 -8.87083 5.95053 -3.49288
683 1 -5.19463 -10.6639 7.79551 -3.50219
684 1 -6.90737 -8.79686 7.92295 -3.51437
685 1 -3.42655 -10.6467 5.99312 -3.51198
686 1 -1.81845 -8.82952 5.99017 -3.47444
687 1 -1.69185 -10.7093 7.84255 -3.51256
688 1 -3.47637 -8.83883 7.85667 -3.51149
689 1 -0.0657931 -10.6408 5.91742 -3.49375
690 1 1.68289 -8.83345 5.92311 -3.49573
691 1 1.89845 -10.4984 7.98082 -3.47811
692 1 0.0484884 -8.81905 7.87449 -3.52668
693 1 3.55125 -10.4207 6.00659 -3.46962
694 1 5.24203 -8.63937 6.10257 -3.49664
695 1 5.13605 -10.3815 7.98047 -3.52142
696 1 3.31965 -8.55847 8.06828 -3.49215
697 1 6.88677 -10.4811 6.07586 -3.48221
698 1 8.62076 -8.56732 6.13337 -3.53336
699 1 8.66261 -10.3717 8.01595 -3.45349
700 1 6.801 -8.56278 8.03129 -3.48394
701 1 10.5912 -10.1377 6.01826 -3.4047
702 1 12.1868 -8.43887 5.84491 -3.37908
703 1 12.4671 -10.1818 7.7852 -3.31983
704 1 10.3701 -8.83641 8.12696 -3.44019
705 1 14.0208 -9.83685 5.83555 -2.73926
706 1 14.2539 -8.38704 7.59637 -2.97254
707 1 -15.4638 -5.22685 6.11212 -3.03172
708 1 -15.7502 -6.90922 7.97055 -2.70179
709 1 -14.0327 -7.33543 5.98172 -3.34891
710 1 -12.2735 -5.45466 5.90613 -3.53103
711 1 -12.2764 -7.14015 7.77525 -3.47732
712 1 -13.9902 -5.34282 7.92197 -3.36299
713 1 -10.4384 -7.19234 5.8589 -3.5061
714 1 -8.86358 -5.19561 5.97116 -3.49184
715 1 -8.90898 -7.17671 8.04329 -3.50384
716 1 -10.5876 -5.41976 7.83628 -3.43322
717 1 -7.04109 -7.09511 6.03327 -3.51115
718 1 -5.19558 -5.22409 5.96649 -3.49159
719 1 -5.18863 -7.00939 7.97131 -3.50432
720 1 -7.17994 -5.25297 7.8464 -3.49923
721 1 -3.57991 -7.07575 6.07331 -3.4821
722 1 -1.77477 -5.28653 6.13173 -3.47721
723 1 -1.68503 -6.99593 8.05746 -3.50382
724 1 -3.4633 -5.18489 8.03863 -3.50087
725 1 -0.131478 -7.06072 5.89543 -3.50276
726 1 1.63726 -5.17999 5.88221 -3.48148
727 1 1.48798 -6.8874 7.94699 -3.45426
728 1 -0.0679124 -5.1509 7.84416 -3.46262
729 1 3.28678 -6.97405 6.08732 -3.51706
730 1 5.14478 -5.26144 6.02285 -3.46321
731 1 5.10721 -6.97158 7.94183 -3.43558
732 1 3.39209 -5.10126 7.82876 -3.51019
733 1 6.85906 -6.82277 6.09572 -3.42907
734 1 8.67303 -5.24 6.05321 -3.41807
735 1 8.6997 -6.84662 8.08964 -3.52408
736 1 6.86341 -5.16427 7.98011 -3.50046
737 1 10.3326 -6.93825 6.18867 -3.40675
738 1 12.1991 -5.48434 6.05093 -3.45465
739 1 12.1953 -7.15084 8.04205 -3.51085