ITEM: TIMESTEP
48000
ITEM: NUMBER OF ATOMS
3804
ITEM: BOX BOUNDS ss ss pp
-1.7730991982007811e+01 1.7826541295227869e+01
-1.7666631993381220e+01 1.7810191729621611e+01
-1.0411200000000000e+00 4.4421120000000002e+01
ITEM: ATOMS id type x y z c_peratom
1 1 -5.2365 -16.1492 -0.966368 -2.95341
2 1 -7.00193 -16.0784 0.749305 -2.65981
3 1 -1.80908 -16.0697 44.538 -3.15595
4 1 -3.61422 -15.8755 0.860797 -3.06669
5 1 0.113171 -17.6567 -1.13954 -2.34317
6 1 1.81331 -16.1075 44.3174 -3.0899
7 1 -0.0733027 -16.123 0.882168 -3.18849
8 1 5.35332 -16.1397 44.3454 -2.96416
9 1 3.716 -16.2053 0.778499 -3.00542
10 1 6.95669 -16.0425 0.721983 -2.72365
11 1 -12.2764 -12.5154 -1.18432 -2.82478
12 1 -10.3361 -14.1176 -1.01372 -2.77233
13 1 -8.59472 -12.4296 -1.10812 -3.4643
14 1 -8.65132 -14.1961 0.793798 -3.12563
15 1 -10.6988 -12.3801 0.844295 -3.30596
16 1 -6.97868 -14.4532 44.3567 -3.32468
17 1 -5.29936 -12.5821 -1.06078 -3.5148
18 1 -5.44012 -14.2548 0.850924 -3.3832
19 1 -6.96094 -12.4737 0.874028 -3.46906
20 1 -3.52653 -14.2593 -1.12364 -3.46859
21 1 -1.70518 -12.492 44.3957 -3.52148
22 1 -1.76777 -14.2575 0.993659 -3.45829
23 1 -3.61862 -12.4716 0.812055 -3.52397
24 1 0.00346864 -14.3394 -0.915518 -3.53209
25 1 1.81417 -12.5697 -0.943762 -3.51452
26 1 1.82711 -14.4653 0.799166 -3.49212
27 1 0.0667273 -12.5118 0.956996 -3.49724
28 1 3.64511 -14.3549 44.4614 -3.50944
29 1 5.31452 -12.4029 44.3325 -3.46256
30 1 5.35039 -14.2759 0.96428 -3.40679
31 1 3.56679 -12.483 0.868115 -3.5016
32 1 6.88148 -14.2107 44.435 -3.35283
33 1 8.87096 -12.4613 -0.961817 -3.43004
34 1 8.92476 -14.291 0.899842 -3.07686
35 1 7.16426 -12.6079 0.779932 -3.4742
36 1 10.5832 -14.0651 44.5907 -2.68033
37 1 12.4558 -12.3724 44.3298 -2.86238
38 1 10.788 -12.3866 0.783775 -3.29895
39 1 -14.0174 -10.5578 -1.07993 -2.73627
40 1 -12.2403 -8.76396 44.2681 -3.4344
41 1 -12.4599 -10.7073 0.822424 -3.29751
42 1 -14.1802 -8.88432 0.839882 -3.08127
43 1 -10.5144 -10.7783 -0.96201 -3.49844
44 1 -8.74584 -8.97126 -0.904133 -3.49338
45 1 -8.7904 -10.7178 0.930685 -3.49793
46 1 -10.6377 -8.93188 0.833586 -3.52816
47 1 -6.97472 -10.5737 44.5432 -3.45034
48 1 -5.27116 -8.83716 -1.05676 -3.46314
49 1 -5.24278 -10.6253 0.774169 -3.49319
50 1 -7.12977 -9.00311 0.908038 -3.43954
51 1 -3.60271 -10.7644 -1.24626 -3.4958
52 1 -1.69269 -9.00333 -0.972352 -3.52278
53 1 -1.72618 -10.7785 0.873671 -3.51066
54 1 -3.43218 -8.95341 0.816651 -3.49999
55 1 0.0784011 -10.7622 -1.04045 -3.48594
56 1 1.73977 -8.83759 44.3815 -3.51235
57 1 1.87762 -10.7262 0.750462 -3.48733
58 1 0.0662973 -8.93945 0.885421 -3.52745
59 1 3.59198 -10.8175 44.3138 -3.47196
60 1 5.40119 -9.01158 -1.05204 -3.48603
61 1 5.31341 -10.6837 0.885959 -3.52832
62 1 3.47912 -8.88361 0.847128 -3.5152
63 1 7.11393 -10.7289 44.4724 -3.50117
64 1 8.83026 -8.92475 44.4055 -3.54064
65 1 8.86846 -10.6221 0.849197 -3.52526
66 1 7.03544 -8.76451 0.862089 -3.50873
67 1 10.6371 -10.7171 -1.13769 -3.45841
68 1 12.3554 -8.7585 -1.17731 -3.41093
69 1 12.5905 -10.5419 0.711643 -3.3264
70 1 10.6532 -8.76411 0.880231 -3.49454
71 1 14.0974 -10.3194 44.3091 -2.75995
72 1 14.3062 -8.73737 0.896062 -3.11222
73 1 -15.851 -5.49355 -1.07329 -2.95158
74 1 -15.871 -6.9789 0.708363 -2.72246
75 1 -14.1767 -7.25453 -1.21483 -3.35788
76 1 -12.3857 -5.51561 -1.02669 -3.54047
77 1 -12.4818 -7.3003 0.804844 -3.44355
78 1 -14.0835 -5.41824 0.8312 -3.40898
79 1 -10.513 -7.1562 -1.19619 -3.43231
80 1 -8.87159 -5.42616 -0.937778 -3.50536
81 1 -8.98565 -7.09426 0.917352 -3.48993
82 1 -10.6721 -5.33217 0.926948 -3.52108
83 1 -6.94994 -7.14811 -0.939195 -3.49422
84 1 -5.25279 -5.38647 44.535 -3.51279
85 1 -5.26728 -7.08534 0.90068 -3.51823
86 1 -7.1083 -5.40787 0.987532 -3.49011
87 1 -3.44039 -7.27744 -0.947179 -3.48716
88 1 -1.76554 -5.40868 -1.00419 -3.48576
89 1 -1.68523 -7.13184 0.970657 -3.45965
90 1 -3.35344 -5.52526 0.936453 -3.43195
91 1 -0.0547592 -7.0413 -1.01826 -3.5131
92 1 1.72752 -5.1507 44.4386 -3.50166
93 1 1.71153 -6.95792 0.90187 -3.53521
94 1 0.0380245 -5.15222 0.900469 -3.49763
95 1 3.43519 -7.06444 -1.12141 -3.50318
96 1 5.31019 -5.24679 44.3033 -3.51171
97 1 5.19371 -6.97121 0.894096 -3.47435
98 1 3.54342 -5.17465 0.77434 -3.50852
99 1 7.03162 -7.11934 -1.09761 -3.51452
100 1 8.84278 -5.2436 -1.12817 -3.50843
101 1 8.83881 -7.06817 0.860028 -3.49744
102 1 6.96309 -5.2173 0.924905 -3.4637
103 1 10.5987 -7.08754 -1.04566 -3.4298
104 1 12.2739 -5.57369 -1.14727 -3.42858
105 1 12.3273 -7.07394 0.932898 -3.46981
106 1 10.576 -5.37627 0.908259 -3.48862
107 1 14.2036 -7.25138 44.4452 -3.36715
108 1 16.0822 -5.17857 -1.22718 -2.94859
109 1 16.0783 -7.01086 0.619119 -2.63051
110 1 14.3591 -5.54325 0.843537 -3.37485
111 1 -16.203 -1.79257 -1.05536 -3.09174
112 1 -15.9986 -3.79004 0.774218 -3.036
113 1 -14.2127 -3.59609 -1.15109 -3.46649
114 1 -12.3839 -1.74043 44.361 -3.5135
115 1 -12.5114 -3.65487 0.638447 -3.4507
116 1 -14.5384 -1.82882 0.665726 -3.39522
117 1 -10.5604 -3.60931 44.5126 -3.48302
118 1 -8.94732 -1.84563 -1.1052 -3.48411
119 1 -8.84958 -3.56699 0.872342 -3.46819
120 1 -10.6693 -1.86613 0.833843 -3.52974
121 1 -7.05973 -3.65587 44.3856 -3.52759
122 1 -5.36983 -1.83054 44.311 -3.47352
123 1 -5.28331 -3.59147 0.820071 -3.5125
124 1 -7.3997 -1.7133 0.925945 -3.43458
125 1 -3.53084 -3.59498 44.3519 -3.51787
126 1 -1.78897 -1.80283 -1.02859 -3.50168
127 1 -1.86135 -3.53632 0.845705 -3.52085
128 1 -3.64119 -1.69954 0.703095 -3.47848
129 1 0.0201567 -3.44734 44.484 -3.51032
130 1 1.85171 -1.68266 44.4551 -3.47885
131 1 1.75719 -3.47585 0.963386 -3.48861
132 1 -0.0285445 -1.72857 0.925125 -3.51929
133 1 3.48668 -3.38163 -1.03102 -3.49323
134 1 5.37792 -1.7107 44.525 -3.49166
135 1 5.34288 -3.5455 0.84441 -3.4807
136 1 3.58424 -1.7073 0.954288 -3.44748
137 1 7.10796 -3.47399 -1.0668 -3.51128
138 1 9.05205 -1.73858 44.48 -3.4684
139 1 8.81825 -3.55032 0.861095 -3.53201
140 1 7.15106 -1.70717 0.991053 -3.50338
141 1 10.616 -3.61949 -1.00427 -3.50443
142 1 12.5036 -1.8242 -1.0825 -3.53491
143 1 12.414 -3.68234 0.824376 -3.54201
144 1 10.7919 -1.78446 0.8584 -3.51356
145 1 14.1636 -3.76783 -1.17938 -3.37814
146 1 15.8786 -2.08976 -0.964197 -3.10955
147 1 15.8465 -3.68958 0.902714 -3.01457
148 1 14.2873 -1.78106 0.937262 -3.45142
149 1 -17.8278 0.0480915 44.041 -2.31166
150 1 -16.1076 1.81176 -0.936862 -3.16353
151 1 -16.2874 -0.0569855 0.756713 -3.23685
152 1 -14.4499 -0.0755109 44.4207 -3.49533
153 1 -12.4828 1.6941 44.5844 -3.51886
154 1 -12.5405 -0.0451033 0.843247 -3.52546
155 1 -14.4152 1.76076 0.849305 -3.49956
156 1 -10.5113 0.0415455 -0.90163 -3.43812
157 1 -8.94109 1.69227 44.4984 -3.46354
158 1 -8.99361 0.0312948 1.01496 -3.45026
159 1 -10.797 1.79166 0.993813 -3.49528
160 1 -7.08584 -0.108666 44.4092 -3.5136
161 1 -5.41656 1.78414 44.3746 -3.51265
162 1 -5.45042 -0.0536472 0.83595 -3.49175
163 1 -7.1408 1.83621 0.796548 -3.53512
164 1 -3.62428 0.0173517 44.4193 -3.52487
165 1 -1.82935 1.87346 44.2364 -3.46472
166 1 -1.74222 0.134992 0.69637 -3.52074
167 1 -3.57992 1.98675 0.761957 -3.45342
168 1 0.0982012 0.078834 44.333 -3.52638
169 1 1.97267 1.89749 44.3672 -3.43536
170 1 1.841 -0.0145083 0.90491 -3.51444
171 1 0.0553251 1.89025 0.805749 -3.52067
172 1 3.5513 0.14335 44.4079 -3.48065
173 1 5.41948 1.76829 44.573 -3.50206
174 1 5.30404 -0.0815761 0.868317 -3.46328
175 1 3.43251 1.91616 0.995033 -3.50215
176 1 7.27185 0.071213 -0.811598 -3.46461
177 1 8.93217 1.79042 44.2368 -3.43457
178 1 8.99465 -0.0690291 1.00161 -3.41893
179 1 7.13472 1.81028 0.980066 -3.49685
180 1 10.7451 -0.110389 -1.08057 -3.47868
181 1 12.5714 1.60532 44.2784 -3.47981
182 1 12.6756 0.0335898 0.869499 -3.49614
183 1 10.7719 1.727 0.829198 -3.51414
184 1 14.427 0.0639906 -1.09256 -3.48865
185 1 16.2573 1.97797 -1.04089 -3.08209
186 1 16.1691 0.0975227 1.06594 -3.12142
187 1 14.4936 1.76864 0.864507 -3.40399
188 1 17.4712 -0.181042 -0.865212 -2.37866
189 1 -16.1194 5.25337 -1.04843 -3.01672
190 1 -16.3048 3.57126 0.879117 -3.01162
191 1 -14.2871 3.51731 -0.898993 -3.45834
192 1 -12.5746 5.29711 -1.01841 -3.53974
193 1 -12.5133 3.47106 0.885531 -3.50386
194 1 -14.3821 5.21013 0.857638 -3.44867
195 1 -10.7585 3.48795 -0.966112 -3.55048
196 1 -8.95259 5.38008 44.6667 -3.45345
197 1 -8.95465 3.65066 0.949434 -3.4889
198 1 -10.7313 5.34605 0.838321 -3.49684
199 1 -7.22423 3.6054 44.4391 -3.52309
200 1 -5.33237 5.26251 44.3462 -3.49229
201 1 -5.33295 3.72099 0.863406 -3.46188
202 1 -6.99857 5.32472 0.887209 -3.47769
203 1 -3.49654 3.57833 44.4999 -3.44867
204 1 -1.72325 5.33731 44.3623 -3.52697
205 1 -1.72103 3.59213 0.982209 -3.5057
206 1 -3.46604 5.54687 0.991155 -3.45069
207 1 0.0258589 3.41605 44.3098 -3.4809
208 1 1.74416 5.3564 44.4489 -3.51404
209 1 1.89677 3.70427 0.952736 -3.434
210 1 0.064141 5.34943 0.783894 -3.49908
211 1 3.66582 3.60176 44.4625 -3.50425
212 1 5.30388 5.41667 44.3946 -3.48021
213 1 5.39903 3.73513 0.925468 -3.51816
214 1 3.55542 5.36747 0.914054 -3.49341
215 1 7.08793 3.6434 44.5666 -3.49896
216 1 8.98566 5.31072 44.4013 -3.50264
217 1 8.89176 3.62539 0.822595 -3.48275
218 1 7.2177 5.46427 0.822127 -3.52682
219 1 10.6599 3.53053 -1.09169 -3.4952
220 1 12.4652 5.32808 44.5502 -3.49593
221 1 12.5301 3.48611 0.881229 -3.48614
222 1 10.7884 5.26123 0.896013 -3.48836
223 1 14.2705 3.52952 -0.928801 -3.48055
224 1 16.1059 5.10311 -0.96354 -3.0114
225 1 16.1823 3.39179 0.873334 -3.01182
226 1 14.2558 5.16537 0.896281 -3.38071
227 1 -16.0351 6.94687 0.753291 -2.72664
228 1 -14.387 7.2089 -0.984128 -3.37086
229 1 -12.5145 8.82405 44.4326 -3.44254
230 1 -12.5544 7.04362 0.858866 -3.48416
231 1 -14.1787 8.7273 1.07559 -3.09135
232 1 -10.7878 7.11964 44.5426 -3.49104
233 1 -8.99871 8.98202 44.5149 -3.49834
234 1 -8.80715 7.13266 0.901125 -3.47841
235 1 -10.7935 8.8479 0.857555 -3.51805
236 1 -7.16746 7.08762 44.4999 -3.53004
237 1 -5.35811 8.88161 -0.906856 -3.49425
238 1 -5.28651 7.13972 0.926641 -3.49858
239 1 -7.04201 8.90978 0.849594 -3.49902
240 1 -3.61474 7.12023 44.5473 -3.51381
241 1 -1.81995 9.00936 44.4674 -3.51471
242 1 -1.695 7.14539 0.843437 -3.50257
243 1 -3.56732 8.89695 0.875072 -3.52767
244 1 0.0191656 7.12188 -0.945931 -3.46309
245 1 1.74565 8.89068 44.3489 -3.503
246 1 1.66557 7.2536 0.802905 -3.51023
247 1 -0.040138 9.07827 0.955408 -3.48703
248 1 3.51556 7.08329 44.4894 -3.49663
249 1 5.25938 8.76557 44.4125 -3.51875
250 1 5.40594 7.15345 0.867858 -3.50052
251 1 3.6069 8.95274 0.965022 -3.52838
252 1 7.30317 7.13862 -1.20258 -3.48997
253 1 8.97364 8.84369 -1.12279 -3.46604
254 1 9.17922 7.07492 0.827348 -3.45964
255 1 7.27022 8.77529 0.731113 -3.51383
256 1 10.6793 7.14317 44.2749 -3.4756
257 1 12.5515 8.71348 44.2039 -3.42922
258 1 12.4734 7.0766 0.786066 -3.49561
259 1 10.7421 8.76197 0.892463 -3.43201
260 1 14.2873 6.88426 44.4989 -3.33785
261 1 15.9197 6.76388 0.860912 -2.71745
262 1 14.2215 8.77633 0.691237 -3.1206
263 1 -14.4632 10.3374 -0.810783 -2.69511
264 1 -12.6149 12.2372 44.3159 -2.81687
265 1 -12.4853 10.5395 0.758689 -3.30276
266 1 -10.6711 10.6642 44.4003 -3.49619
267 1 -8.90401 12.5179 44.4604 -3.47862
268 1 -8.85291 10.7408 0.899063 -3.48029
269 1 -10.7165 12.3805 0.883114 -3.34621
270 1 -7.23099 10.6424 44.306 -3.49616
271 1 -5.45112 12.6146 44.4179 -3.52169
272 1 -5.36867 10.6591 0.800925 -3.48047
273 1 -7.09848 12.5094 0.868818 -3.49402
274 1 -3.56428 10.734 -1.05416 -3.47358
275 1 -1.91856 12.5344 44.5292 -3.48263
276 1 -1.86119 10.7073 0.938328 -3.51605
277 1 -3.7882 12.4317 0.776809 -3.50835
278 1 -0.087312 10.7154 -0.862845 -3.49476
279 1 1.67897 12.3995 44.5223 -3.50148
280 1 1.78989 10.7005 0.937487 -3.51245
281 1 -0.097011 12.564 0.997974 -3.51033
282 1 3.48956 10.6098 44.2871 -3.43438
283 1 5.49053 12.4395 -1.03608 -3.5342
284 1 5.44889 10.6245 0.840369 -3.50523
285 1 3.64047 12.4159 0.908804 -3.51432
286 1 7.1857 10.4669 -1.10633 -3.497
287 1 8.81793 12.3331 -1.06289 -3.44032
288 1 8.91887 10.6317 0.877432 -3.53337
289 1 7.10202 12.5083 0.766584 -3.41316
290 1 10.7217 10.7509 -1.12332 -3.43641
291 1 12.3988 12.3141 -1.19277 -2.83145
292 1 12.6238 10.6053 0.88787 -3.29272
293 1 10.8082 12.3096 0.752946 -3.29766
294 1 14.1849 10.5624 -1.21281 -2.71483
295 1 -10.7427 14.096 44.3847 -2.71233
296 1 -9.09471 14.3123 0.820645 -3.10622
297 1 -7.39463 14.5247 -0.952637 -3.29189
298 1 -5.31601 16.1577 44.486 -2.98529
299 1 -5.55174 14.3748 0.898913 -3.38393
300 1 -7.0996 16.1236 0.947656 -2.68733
301 1 -3.65846 14.2846 44.5847 -3.40576
302 1 -1.83624 16.1146 44.4589 -3.11273
303 1 -1.93813 14.3675 0.7851 -3.44014
304 1 -3.7882 15.9447 0.855466 -2.98999
305 1 -0.104481 14.2883 -0.904607 -3.51058
306 1 1.91607 16.1343 -0.953726 -3.11085
307 1 1.78531 14.2205 0.934427 -3.45623
308 1 0.13387 16.1653 1.11042 -3.19181
309 1 3.48592 14.1105 44.3514 -3.47067
310 1 5.15384 15.801 44.6054 -3.02861
311 1 5.36109 14.1153 0.883035 -3.40795
312 1 3.42204 15.9112 0.95315 -3.00263
313 1 7.19738 14.3328 -0.955191 -3.35114
314 1 8.88201 14.1211 0.854511 -3.13545
315 1 7.08323 15.8768 0.960327 -2.72637
316 1 10.4989 14.0486 -1.14707 -2.7869
317 1 0.0166658 17.729 -0.952508 -2.29672
318 1 -5.07102 -16.1752 2.93445 -2.89249
319 1 -6.8485 -16.138 4.75536 -2.63958
320 1 -1.89092 -15.9125 2.86483 -3.17245
321 1 -3.53802 -16.0378 4.67955 -2.99761
322 1 -0.158518 -17.6123 2.67693 -2.3717
323 1 1.90912 -16.0792 2.6998 -3.136
324 1 0.0609591 -16.0477 4.4319 -3.21104
325 1 5.52315 -15.9902 2.61699 -2.94158
326 1 3.75755 -16.0876 4.72729 -3.00749
327 1 7.06739 -16.0201 4.89601 -2.67248
328 1 -12.2293 -12.4571 2.9289 -2.84665
329 1 -10.2986 -14.1408 2.60127 -2.72364
330 1 -8.79069 -12.3952 2.72196 -3.42313
331 1 -8.67792 -14.3074 4.74478 -3.09513
332 1 -10.3956 -12.5138 4.59091 -3.35192
333 1 -7.09012 -14.2211 2.65384 -3.35249
334 1 -5.24866 -12.3292 2.86587 -3.45589
335 1 -5.22812 -14.1622 4.55811 -3.46804
336 1 -7.08973 -12.3348 4.65685 -3.49864
337 1 -3.59447 -14.0627 2.64476 -3.4394
338 1 -1.61127 -12.5027 2.77188 -3.49714
339 1 -1.65583 -14.1506 4.636 -3.43781
340 1 -3.39218 -12.4225 4.59196 -3.5068
341 1 0.0269194 -14.45 2.59445 -3.44318
342 1 1.92589 -12.6294 2.73334 -3.51624
343 1 1.92742 -14.39 4.67777 -3.46186
344 1 0.192729 -12.6337 4.58485 -3.49063
345 1 3.70557 -14.3353 2.79391 -3.43659
346 1 5.33731 -12.4106 2.6841 -3.48855
347 1 5.45898 -14.16 4.48829 -3.47362
348 1 3.47623 -12.3474 4.66642 -3.5062
349 1 7.34987 -14.2587 2.66359 -3.34005
350 1 9.08412 -12.3828 2.65335 -3.4826
351 1 8.96941 -14.3312 4.60631 -3.11574
352 1 7.19706 -12.4387 4.69831 -3.49553
353 1 10.6761 -14.2856 2.85284 -2.68208
354 1 12.4321 -12.3875 2.5377 -2.86836
355 1 10.9168 -12.5164 4.51421 -3.30636
356 1 -14.077 -10.656 2.82177 -2.67898
357 1 -12.5633 -8.678 2.82823 -3.4194
358 1 -12.2733 -10.5896 4.54775 -3.30603
359 1 -14.2166 -8.69992 4.69571 -3.11857
360 1 -10.6173 -10.6193 2.78177 -3.49029
361 1 -8.82017 -8.88492 2.652 -3.47814
362 1 -8.73355 -10.4719 4.55547 -3.50658
363 1 -10.6655 -8.84571 4.55265 -3.48403
364 1 -6.9095 -10.5898 2.73381 -3.50361
365 1 -5.28541 -8.72975 2.73719 -3.47974
366 1 -5.28096 -10.626 4.7442 -3.49381
367 1 -6.96569 -8.84682 4.62319 -3.47219
368 1 -3.42942 -10.6223 2.61149 -3.49898
369 1 -1.62951 -8.84109 2.67336 -3.49482
370 1 -1.4563 -10.7144 4.60661 -3.50926
371 1 -3.30773 -8.89844 4.53398 -3.51248
372 1 0.143254 -10.7968 2.62318 -3.49679
373 1 1.7704 -8.84608 2.78446 -3.52482
374 1 1.66549 -10.7096 4.64846 -3.47272
375 1 0.116397 -8.92508 4.67736 -3.44685
376 1 3.5071 -10.7683 2.75113 -3.5013
377 1 5.27871 -8.87267 2.89885 -3.51089
378 1 5.31412 -10.7639 4.66295 -3.49875
379 1 3.54862 -9.03854 4.70894 -3.5058
380 1 7.1538 -10.7635 2.68497 -3.48086
381 1 8.80415 -9.03405 2.83873 -3.46242
382 1 9.08305 -10.7608 4.69486 -3.50496
383 1 7.14616 -8.93835 4.69354 -3.51376
384 1 10.7163 -10.586 2.73496 -3.48612
385 1 12.3996 -8.78841 2.8696 -3.47909
386 1 12.6347 -10.7444 4.6145 -3.34638
387 1 10.8422 -8.92105 4.85377 -3.50319
388 1 14.2135 -10.4832 2.63441 -2.73584
389 1 14.4111 -8.95747 4.61218 -3.10244
390 1 -16.0534 -5.24405 2.73246 -2.99464
391 1 -16.1393 -6.78896 4.64806 -2.6874
392 1 -14.3735 -7.13485 2.70326 -3.32919
393 1 -12.5459 -5.39447 2.78155 -3.50593
394 1 -12.4668 -6.95526 4.6942 -3.47581
395 1 -14.2641 -5.24831 4.57687 -3.47224
396 1 -10.6414 -7.10564 2.69249 -3.50521
397 1 -8.94171 -5.20489 2.72821 -3.48958
398 1 -8.79475 -7.14386 4.47569 -3.51237
399 1 -10.6957 -5.2057 4.46204 -3.42121
400 1 -7.12136 -7.13367 2.80211 -3.4784
401 1 -5.09895 -5.28218 2.82076 -3.47489
402 1 -5.15809 -7.0987 4.58764 -3.47598
403 1 -6.89544 -5.25911 4.50671 -3.50099
404 1 -3.46108 -7.09703 2.83852 -3.43848
405 1 -1.80474 -5.36816 2.80544 -3.50146
406 1 -1.586 -7.05233 4.75591 -3.51613
407 1 -3.43314 -5.39691 4.75107 -3.45659
408 1 0.0492768 -7.08077 2.82363 -3.50062
409 1 1.71353 -5.19778 2.75376 -3.5139
410 1 1.82518 -7.06939 4.63698 -3.54828
411 1 0.0752866 -5.21013 4.77741 -3.50932
412 1 3.55476 -6.9519 2.68088 -3.47154
413 1 5.24511 -5.2217 2.69151 -3.48221
414 1 5.29628 -7.05649 4.53434 -3.49719
415 1 3.58061 -5.25336 4.65752 -3.44387
416 1 7.20309 -7.10849 2.80688 -3.5122
417 1 8.91849 -5.32269 2.7889 -3.50765
418 1 8.98521 -7.22093 4.77012 -3.49185
419 1 7.17905 -5.28352 4.63603 -3.52788
420 1 10.5567 -7.20963 2.84315 -3.48368
421 1 12.4143 -5.50782 2.78183 -3.5118
422 1 12.6386 -7.1331 4.81481 -3.43921
423 1 10.8026 -5.55126 4.64626 -3.50968
424 1 14.3255 -7.09173 2.92624 -3.33923
425 1 16.0059 -5.20885 2.73419 -2.98635
426 1 16.1214 -6.90639 4.53946 -2.72433
427 1 14.1655 -5.27493 4.55795 -3.43705
428 1 -16.1353 -1.84547 2.60869 -3.1118
429 1 -16.1824 -3.55506 4.62859 -3.02263
430 1 -14.1704 -3.45644 2.63438 -3.50196
431 1 -12.4883 -1.68437 2.88217 -3.45337
432 1 -12.4519 -3.55916 4.75836 -3.48827
433 1 -14.2648 -1.82196 4.63759 -3.45566
434 1 -10.855 -3.55815 2.77311 -3.47206
435 1 -9.02773 -1.85795 2.80629 -3.5047
436 1 -8.79344 -3.74114 4.69808 -3.45797
437 1 -10.57 -1.84301 4.67582 -3.50247
438 1 -6.93795 -3.6787 2.62492 -3.43852
439 1 -5.3798 -1.73037 2.74704 -3.48163
440 1 -5.03551 -3.43819 4.75572 -3.50952
441 1 -6.97593 -1.80095 4.77873 -3.49471
442 1 -3.58544 -3.47911 2.654 -3.48461
443 1 -1.81365 -1.73152 2.74708 -3.4911
444 1 -1.95105 -3.52492 4.68268 -3.53993
445 1 -3.57629 -1.53458 4.49148 -3.46782
446 1 -0.149785 -3.54142 2.80793 -3.5109
447 1 1.7548 -1.71259 2.81715 -3.52278
448 1 1.87874 -3.59438 4.64846 -3.47191
449 1 0.00133959 -1.75565 4.79442 -3.50796
450 1 3.54718 -3.35253 2.65754 -3.48528
451 1 5.45324 -1.71303 2.84111 -3.47016
452 1 5.3204 -3.60664 4.69067 -3.50284
453 1 3.84524 -1.57115 4.61618 -3.4025
454 1 7.09961 -3.42853 2.84782 -3.48108
455 1 8.97945 -1.69334 2.82617 -3.48096
456 1 9.08456 -3.56546 4.71648 -3.51599
457 1 7.23358 -1.84807 4.65865 -3.51617
458 1 10.7411 -3.56998 2.83952 -3.50177
459 1 12.4458 -1.88873 2.77148 -3.46997
460 1 12.4992 -3.61641 4.71645 -3.4748
461 1 10.8162 -1.75755 4.51742 -3.48455
462 1 14.1749 -3.60924 2.72318 -3.44261
463 1 15.9904 -1.99155 2.75671 -3.1526
464 1 16.2253 -3.599 4.54482 -3.01792
465 1 14.2546 -1.77039 4.62332 -3.5311
466 1 -17.832 -0.176898 2.79728 -2.48563
467 1 -16.1172 1.67204 2.68797 -3.2108
468 1 -16.0114 -0.250602 4.60084 -3.20938
469 1 -14.57 -0.0699349 2.66679 -3.42194
470 1 -12.6162 1.69284 2.73377 -3.53478
471 1 -12.4721 0.153216 4.73361 -3.42867
472 1 -14.3935 1.6599 4.62747 -3.52186
473 1 -10.7355 -0.0300273 2.76558 -3.47294
474 1 -8.81572 1.74296 2.76728 -3.49606
475 1 -8.74892 -0.106287 4.70332 -3.47444
476 1 -10.6397 1.62535 4.54574 -3.46817
477 1 -7.0314 -0.0299586 2.83626 -3.4813
478 1 -5.34999 1.80135 2.58908 -3.51138
479 1 -5.28206 0.18727 4.70613 -3.5029
480 1 -7.21642 1.74635 4.60036 -3.4734
481 1 -3.56621 0.0513609 2.49544 -3.51856
482 1 -1.77596 1.89224 2.83444 -3.49542
483 1 -1.80348 0.137393 4.65989 -3.4608
484 1 -3.5084 1.80667 4.64074 -3.43659
485 1 -0.00974009 0.0395129 2.73392 -3.47755
486 1 1.60295 1.77956 2.90061 -3.46392
487 1 1.82626 0.0679552 4.81931 -3.46117
488 1 0.0278263 1.75729 4.67255 -3.46317
489 1 3.66474 0.0156047 2.75978 -3.45682
490 1 5.21866 1.75324 2.83421 -3.46613
491 1 5.42939 0.0978569 4.79644 -3.42252
492 1 3.5568 1.79193 4.63966 -3.50663
493 1 7.20516 0.0832696 2.89429 -3.54882
494 1 8.96208 1.87422 2.82018 -3.51932
495 1 9.07784 0.157783 4.77523 -3.5058
496 1 7.20915 1.85986 4.78212 -3.49073
497 1 10.6701 -0.0425047 2.63075 -3.41416
498 1 12.4856 1.5835 2.7946 -3.44944
499 1 12.549 -0.0152608 4.83389 -3.42126
500 1 10.8749 1.70273 4.66332 -3.47948
501 1 14.4214 0.0147622 2.83172 -3.48828
502 1 16.2153 1.86221 2.98456 -3.12622
503 1 16.2349 -0.315749 4.6726 -3.18762
504 1 14.3993 1.47812 4.67168 -3.42061
505 1 17.7023 -0.210194 2.80179 -2.36071
506 1 -16.1259 5.19325 2.80635 -2.98775
507 1 -16.0724 3.47467 4.69343 -3.11327
508 1 -14.3173 3.5536 2.7147 -3.48821
509 1 -12.4971 5.2628 2.74108 -3.53225
510 1 -12.4294 3.41753 4.63826 -3.54427
511 1 -14.2754 5.40271 4.70504 -3.45191
512 1 -10.741 3.46176 2.84771 -3.50889
513 1 -8.97006 5.27763 2.67053 -3.51035
514 1 -8.93303 3.59744 4.63622 -3.49593
515 1 -10.6849 5.37361 4.74668 -3.494
516 1 -7.12424 3.50737 2.72147 -3.52863
517 1 -5.14149 5.35525 2.76803 -3.48504
518 1 -5.29202 3.46523 4.59357 -3.52717
519 1 -7.08513 5.29968 4.49737 -3.50819
520 1 -3.591 3.53625 2.68904 -3.47598
521 1 -1.72344 5.37583 2.74309 -3.49966
522 1 -1.63014 3.54373 4.57411 -3.51
523 1 -3.51278 5.22354 4.6052 -3.51596
524 1 0.121562 3.69831 2.845 -3.4726
525 1 1.82201 5.45676 2.79 -3.49064
526 1 1.79703 3.71559 4.57247 -3.51567
527 1 0.0943887 5.45921 4.72158 -3.46733
528 1 3.64043 3.71435 2.83806 -3.51604
529 1 5.48531 5.50034 2.7749 -3.5275
530 1 5.30968 3.63281 4.63868 -3.51655
531 1 3.61177 5.51892 4.705 -3.52182
532 1 7.17389 3.59003 2.71679 -3.49907
533 1 9.00863 5.17816 2.78658 -3.5205
534 1 8.99222 3.47749 4.67223 -3.50031
535 1 7.13236 5.30242 4.71746 -3.47431
536 1 11.0303 3.49435 2.89126 -3.46993
537 1 12.5752 5.33615 2.68719 -3.49927
538 1 12.7427 3.57483 4.7373 -3.53791
539 1 10.9199 5.26621 4.78315 -3.5087
540 1 14.2936 3.29068 2.75543 -3.46853
541 1 15.9101 5.12616 2.68799 -2.99518
542 1 15.8766 3.54306 4.7683 -3.03472
543 1 14.4374 5.36656 4.61799 -3.35099
544 1 -16.0031 7.07049 4.62546 -2.70573
545 1 -14.2957 7.00353 2.63323 -3.33362
546 1 -12.3981 8.88373 2.84391 -3.43547
547 1 -12.4863 7.10839 4.5741 -3.50135
548 1 -14.2623 8.77092 4.51609 -3.12045
549 1 -10.644 7.11986 2.79658 -3.48611
550 1 -8.97169 8.74308 2.62557 -3.47523
551 1 -8.81213 7.11181 4.68045 -3.51684
552 1 -10.5795 8.87425 4.66303 -3.52929
553 1 -7.05739 6.99889 2.75764 -3.52545
554 1 -5.28463 8.92567 2.72605 -3.50981
555 1 -5.21063 7.1938 4.4944 -3.51414
556 1 -7.1019 8.86586 4.5947 -3.49153
557 1 -3.39862 7.19756 2.7389 -3.49095
558 1 -1.83958 9.01763 2.78569 -3.50998
559 1 -1.76532 7.01824 4.7248 -3.50388
560 1 -3.50547 8.9219 4.65857 -3.48443
561 1 -0.0900051 7.10232 2.74274 -3.52892
562 1 1.77198 8.9361 2.83515 -3.51683
563 1 1.77708 7.19084 4.70632 -3.49748
564 1 0.0346376 8.99526 4.54414 -3.51593
565 1 3.53214 7.15426 2.86543 -3.47033
566 1 5.55223 8.89975 2.71654 -3.51755
567 1 5.44102 7.19162 4.68867 -3.51487
568 1 3.73239 8.84796 4.5219 -3.43879
569 1 7.36568 7.08955 2.84025 -3.47466
570 1 9.02219 8.85123 2.64534 -3.50479
571 1 9.02427 7.00648 4.64414 -3.50291
572 1 7.32709 8.89928 4.54402 -3.49347
573 1 10.8534 7.02588 2.77003 -3.49243
574 1 12.3801 8.88362 2.68524 -3.38697
575 1 12.5511 7.12104 4.59088 -3.49582
576 1 10.7083 8.85131 4.66592 -3.52176
577 1 14.3084 7.20826 2.80291 -3.38717
578 1 15.9861 7.1387 4.8782 -2.64476
579 1 14.1658 8.98178 4.71274 -3.10733
580 1 -14.0561 10.7169 2.52933 -2.71778
581 1 -12.392 12.424 2.76776 -2.86062
582 1 -12.4356 10.6018 4.49953 -3.29009
583 1 -10.6566 10.6412 2.77738 -3.46495
584 1 -8.93837 12.2893 2.63842 -3.37757
585 1 -8.76813 10.6097 4.6254 -3.40245
586 1 -10.5301 12.253 4.59445 -3.3743
587 1 -7.09121 10.6303 2.82603 -3.48977
588 1 -5.55111 12.4884 2.78352 -3.50113
589 1 -5.33931 10.7938 4.67457 -3.48741
590 1 -7.29704 12.4128 4.71673 -3.48495
591 1 -3.70521 10.7068 2.86909 -3.5107
592 1 -1.87927 12.5255 2.79031 -3.50395
593 1 -1.85682 10.7233 4.6743 -3.49788
594 1 -3.66989 12.4705 4.73918 -3.47157
595 1 1.96788e-05 10.8383 2.82039 -3.49995
596 1 1.85406 12.4528 2.90382 -3.51889
597 1 1.68928 10.8051 4.79678 -3.45355
598 1 -0.0765909 12.4078 4.7283 -3.49455
599 1 3.64096 10.602 2.94194 -3.47266
600 1 5.21746 12.4116 2.83048 -3.48617
601 1 5.5012 10.5818 4.63804 -3.5157
602 1 3.59887 12.3089 4.86342 -3.50239
603 1 7.02984 10.8121 2.64379 -3.46538
604 1 9.06404 12.376 2.88623 -3.4599
605 1 8.96093 10.6863 4.67228 -3.46199
606 1 7.08506 12.6301 4.64565 -3.53471
607 1 10.8544 10.5952 2.7845 -3.41835
608 1 12.6946 12.26 2.67868 -2.8274
609 1 12.3925 10.7164 4.72847 -3.31938
610 1 10.9462 12.653 4.77374 -3.23003
611 1 14.3206 10.4157 2.72581 -2.71102
612 1 -10.4635 14.1526 2.97231 -2.79857
613 1 -8.92708 14.3662 4.85581 -3.04462
614 1 -7.57279 14.3825 2.84444 -3.36295
615 1 -5.52514 15.9984 2.86542 -3.00154
616 1 -5.39293 14.1971 4.58498 -3.4374
617 1 -7.04722 16.0824 4.8632 -2.71962
618 1 -3.66581 14.1763 2.7662 -3.48451
619 1 -2.05595 16.1485 2.71181 -3.089
620 1 -1.84934 14.3075 4.78691 -3.46663
621 1 -3.80373 15.9675 4.70957 -3.04175
622 1 -0.125066 14.3192 2.78663 -3.50172
623 1 1.72254 15.8887 2.91818 -3.13457
624 1 1.81504 14.1955 4.75333 -3.50304
625 1 -0.0708448 15.971 4.75796 -3.21375
626 1 3.52548 14.1929 2.78558 -3.40535
627 1 5.39493 15.7133 2.88626 -2.94126
628 1 5.14919 14.277 4.70133 -3.40511
629 1 3.39807 16.0696 4.88393 -2.95821
630 1 7.09145 14.0744 2.67829 -3.32283
631 1 9.10308 14.284 4.55578 -3.02012
632 1 7.16116 15.7291 4.63674 -2.73899
633 1 10.9352 14.0696 2.37028 -2.60802
634 1 -0.0700179 17.6394 3.05569 -2.35681
635 1 -5.16869 -16.1687 6.70271 -2.93616
636 1 -6.73298 -15.9216 8.60312 -2.76586
637 1 -1.6756 -15.9117 6.43556 -3.14179
638 1 -3.41236 -16.0528 8.47391 -3.04423
639 1 -0.0173988 -17.5446 6.38156 -2.37152
640 1 1.90554 -16.0513 6.52054 -3.12888
641 1 -0.0650255 -16.0493 8.37787 -3.26972
642 1 5.36871 -16.0522 6.63722 -2.97349
643 1 3.56519 -16.0357 8.36069 -3.03874
644 1 7.08644 -15.9507 8.31325 -2.73878
645 1 -12.1678 -12.3625 6.45961 -2.87166
646 1 -10.372 -14.1636 6.6573 -2.71513
647 1 -8.66164 -12.4514 6.57096 -3.41843
648 1 -8.79403 -14.4938 8.57777 -3.02384
649 1 -10.6354 -12.4047 8.4662 -3.31073
650 1 -6.89774 -14.3174 6.48005 -3.35665
651 1 -5.14395 -12.4591 6.72678 -3.46892
652 1 -5.11168 -14.2492 8.61257 -3.41959
653 1 -7.0798 -12.7587 8.41385 -3.47854
654 1 -3.57704 -14.2956 6.52049 -3.4736
655 1 -1.58377 -12.5826 6.41739 -3.49895
656 1 -1.77397 -14.1434 8.45443 -3.47414
657 1 -3.36307 -12.378 8.42798 -3.47298
658 1 0.170893 -14.3147 6.56513 -3.48602
659 1 1.72174 -12.4753 6.52973 -3.51936
660 1 1.91132 -14.2805 8.45071 -3.45414
661 1 0.0357916 -12.4654 8.42945 -3.53588
662 1 3.60832 -14.168 6.4636 -3.47412
663 1 5.38562 -12.5679 6.53431 -3.51564
664 1 5.45801 -14.2493 8.52551 -3.40628
665 1 3.52592 -12.5376 8.38784 -3.5005
666 1 7.22461 -14.3453 6.50954 -3.30761
667 1 8.99872 -12.4911 6.47249 -3.40496
668 1 8.96753 -14.1295 8.30263 -3.15079
669 1 7.10391 -12.5703 8.45054 -3.46794
670 1 10.8311 -14.0371 6.5266 -2.75419
671 1 12.7258 -12.4873 6.53524 -2.80102
672 1 10.8545 -12.4973 8.44111 -3.28833
673 1 -13.9512 -10.5376 6.54843 -2.73006
674 1 -12.3067 -8.75521 6.48831 -3.48239
675 1 -12.2611 -10.6777 8.31672 -3.31433
676 1 -14.2385 -8.93627 8.31137 -3.06164
677 1 -10.5037 -10.664 6.56421 -3.47831
678 1 -8.90215 -8.81656 6.46487 -3.49124
679 1 -8.81496 -10.672 8.34571 -3.5083
680 1 -10.5447 -8.83898 8.48796 -3.50631
681 1 -7.102 -10.5784 6.463 -3.47509
682 1 -5.16584 -8.82955 6.66033 -3.49139
683 1 -5.33227 -10.7741 8.46091 -3.50712
684 1 -6.9999 -8.86254 8.42564 -3.49809
685 1 -3.33197 -10.6901 6.68916 -3.45903
686 1 -1.7187 -8.91276 6.50172 -3.50785
687 1 -1.63482 -10.547 8.46822 -3.475
688 1 -3.45387 -8.87852 8.37369 -3.49394
689 1 0.00609715 -10.7239 6.56201 -3.47598
690 1 1.71627 -8.97201 6.51487 -3.49582
691 1 1.83626 -10.6349 8.45844 -3.53223
692 1 0.0547847 -8.85284 8.43346 -3.49994
693 1 3.65394 -10.6755 6.59754 -3.52479
694 1 5.48377 -8.90744 6.57175 -3.49771
695 1 5.31489 -10.7128 8.3688 -3.48981
696 1 3.69087 -8.91746 8.58259 -3.49603
697 1 7.25397 -10.7591 6.58411 -3.50293
698 1 9.02907 -9.07813 6.74402 -3.50592
699 1 8.93457 -10.8254 8.45056 -3.50639
700 1 7.21073 -8.97282 8.43888 -3.47636
701 1 10.8151 -10.9391 6.44034 -3.47284
702 1 12.728 -8.99599 6.61601 -3.44675
703 1 12.6011 -10.8926 8.33551 -3.28302
704 1 10.9549 -9.07013 8.56259 -3.48184
705 1 14.5199 -10.487 6.48149 -2.66365
706 1 14.582 -9.18306 8.64603 -3.03756
707 1 -16.0624 -5.17826 6.42275 -2.99011
708 1 -15.9639 -6.98785 8.45012 -2.67307
709 1 -14.2237 -6.99728 6.43631 -3.35898
710 1 -12.4999 -5.26921 6.59398 -3.49471
711 1 -12.5736 -7.24211 8.45038 -3.47377
712 1 -14.3738 -5.25717 8.41735 -3.42035
713 1 -10.5257 -7.06629 6.58231 -3.47142
714 1 -8.71098 -5.35172 6.5374 -3.45316
715 1 -8.80898 -7.13994 8.47968 -3.48256
716 1 -10.6053 -5.30039 8.34588 -3.50445
717 1 -7.09682 -7.04221 6.5791 -3.49128
718 1 -5.21556 -5.20313 6.55505 -3.52418
719 1 -5.36582 -7.07142 8.48565 -3.49292
720 1 -7.06436 -5.29976 8.50426 -3.51467
721 1 -3.41878 -7.06323 6.6761 -3.48222
722 1 -1.74868 -5.3524 6.66462 -3.50989
723 1 -1.66128 -7.06616 8.54084 -3.49696
724 1 -3.61701 -5.1835 8.52805 -3.51684
725 1 0.096999 -7.03712 6.60944 -3.53216
726 1 1.89943 -5.29596 6.51385 -3.50473
727 1 1.89304 -7.11113 8.46984 -3.52559
728 1 0.081386 -5.2715 8.49969 -3.5349
729 1 3.63738 -7.31781 6.56942 -3.50107
730 1 5.46363 -5.4815 6.49831 -3.50987
731 1 5.62333 -7.21884 8.61147 -3.4513
732 1 3.66631 -5.28842 8.39075 -3.49738
733 1 7.24875 -7.12938 6.56795 -3.48292
734 1 8.98774 -5.34103 6.47802 -3.50841
735 1 9.11813 -7.15898 8.5397 -3.50643
736 1 7.31784 -5.43145 8.39262 -3.50256
737 1 10.7848 -7.26384 6.60271 -3.49443
738 1 12.5576 -5.56433 6.60083 -3.47802
739 1 12.7447 -7.39944 8.50731 -3.50355
740 1 10.9292 -5.43394 8.4653 -3.47535
741 1 14.4378 -7.16791 6.50241 -3.33235
742 1 16.0209 -5.37071 6.44311 -3.00152
743 1 16.1419 -7.28499 8.39707 -2.68567