ITEM: TIMESTEP
84000
ITEM: NUMBER OF ATOMS
3804
ITEM: BOX BOUNDS ss ss pp
-1.7593330836591882e+01 1.7561933024572145e+01
-1.7575066288346619e+01 1.7588732007444371e+01
-1.8219600000000000e+00 4.5201960000000000e+01
ITEM: ATOMS id type x y z c_peratom
1 1 -5.23209 -16.0134 -1.73463 -2.92254
2 1 -7.03773 -15.9428 -0.125392 -2.64571
3 1 -1.89078 -16.0657 45.3342 -3.04525
4 1 -3.71296 -16.0934 0.476256 -2.93361
5 1 0.0588223 -17.3958 -1.48048 -2.37512
6 1 1.91758 -15.8022 -1.77485 -3.15722
7 1 0.0868058 -15.6759 0.196205 -3.21745
8 1 5.17266 -15.6603 -1.62163 -2.99588
9 1 3.52499 -15.87 0.291916 -3.01519
10 1 6.81055 -15.5859 0.26189 -2.74987
11 1 -12.3155 -12.141 -1.77174 -2.84603
12 1 -10.6327 -14.0447 -1.79807 -2.66644
13 1 -8.97313 -12.3923 45.366 -3.44011
14 1 -8.88553 -14.1957 0.201658 -3.11313
15 1 -10.677 -12.2693 0.24954 -3.33839
16 1 -7.21766 -14.1164 -1.89521 -3.36031
17 1 -5.45803 -12.4665 -1.92603 -3.48236
18 1 -5.44419 -14.0831 0.193651 -3.43417
19 1 -7.10076 -12.3502 0.0560394 -3.48393
20 1 -3.59907 -14.1532 -1.79423 -3.43755
21 1 -1.86883 -12.3418 -1.79054 -3.46392
22 1 -1.86565 -14.2079 0.221885 -3.45734
23 1 -3.6385 -12.5206 0.0857665 -3.48388
24 1 0.0440787 -14.1497 45.2352 -3.49965
25 1 1.71274 -12.3814 -1.91694 -3.44066
26 1 1.87455 -13.995 0.154941 -3.44916
27 1 -0.0338835 -12.4783 0.179642 -3.53094
28 1 3.61627 -13.8714 -1.62923 -3.42725
29 1 5.39949 -12.1346 -1.86966 -3.46876
30 1 5.25672 -13.8245 0.128462 -3.43905
31 1 3.46715 -12.1679 0.186088 -3.39552
32 1 7.00789 -13.9563 -1.72699 -3.36279
33 1 8.75131 -12.2594 45.2899 -3.46083
34 1 8.82494 -13.9591 0.231017 -3.11389
35 1 7.09671 -12.1791 0.208972 -3.47318
36 1 10.5229 -13.8891 -1.76813 -2.71618
37 1 12.3767 -12.3058 -1.64687 -2.84431
38 1 10.637 -12.1784 0.278012 -3.3241
39 1 -13.9942 -10.1868 45.2138 -2.66034
40 1 -12.357 -8.67438 -1.71105 -3.3348
41 1 -12.3238 -10.3339 0.239928 -3.3477
42 1 -14.2174 -8.7433 0.338441 -3.04828
43 1 -10.6285 -10.4367 -1.72542 -3.5052
44 1 -8.72097 -8.65193 -1.77114 -3.43375
45 1 -8.82452 -10.5429 0.253628 -3.51387
46 1 -10.5288 -8.61761 0.206172 -3.50779
47 1 -7.14661 -10.5468 45.327 -3.49204
48 1 -5.25179 -8.93927 -1.73625 -3.48018
49 1 -5.27814 -10.6881 0.0148657 -3.48498
50 1 -7.02814 -8.89508 0.140302 -3.50106
51 1 -3.56994 -10.6094 -1.70762 -3.45159
52 1 -1.90101 -8.8442 -1.91589 -3.53392
53 1 -1.80908 -10.6532 0.0896668 -3.50629
54 1 -3.62385 -8.84178 0.0789078 -3.47477
55 1 -0.154525 -10.695 45.1289 -3.47772
56 1 1.60641 -8.89791 45.0963 -3.46313
57 1 1.75048 -10.5842 0.301543 -3.46951
58 1 -0.104096 -8.92678 -0.0748457 -3.45226
59 1 3.38303 -10.654 -1.94645 -3.47511
60 1 5.2074 -8.95494 -1.95574 -3.48846
61 1 5.17279 -10.5877 0.045145 -3.46346
62 1 3.52154 -8.88763 0.0178039 -3.47377
63 1 7.02517 -10.4859 45.1597 -3.43458
64 1 8.81235 -8.88063 45.2055 -3.51246
65 1 8.86272 -10.5915 0.165364 -3.46802
66 1 6.98602 -8.83112 0.177028 -3.49636
67 1 10.6632 -10.53 45.2352 -3.50943
68 1 12.2124 -8.68517 -1.75623 -3.37438
69 1 12.4455 -10.3625 0.125388 -3.32591
70 1 10.6027 -8.73969 0.223217 -3.50096
71 1 13.9474 -10.4144 -1.8649 -2.76412
72 1 14.2366 -8.77911 0.085437 -3.09378
73 1 -15.8061 -5.12093 45.1198 -2.97043
74 1 -15.7987 -6.97326 0.205013 -2.67522
75 1 -14.0426 -6.92311 45.2049 -3.35831
76 1 -12.2348 -5.33238 45.1105 -3.48276
77 1 -12.4522 -6.99452 0.211164 -3.49912
78 1 -14.1574 -5.21009 0.0545832 -3.34145
79 1 -10.5377 -7.09579 45.3106 -3.46873
80 1 -8.73253 -5.30771 -1.98756 -3.41051
81 1 -8.66195 -7.10915 0.325113 -3.44601
82 1 -10.422 -5.36149 0.136589 -3.54026
83 1 -7.11239 -6.99041 45.207 -3.42495
84 1 -5.31811 -5.30912 45.2481 -3.48903
85 1 -5.24271 -7.08067 0.180412 -3.48605
86 1 -7.09336 -5.159 0.0276915 -3.50649
87 1 -3.66561 -7.01439 -1.85616 -3.48667
88 1 -1.92098 -5.23067 -1.92252 -3.527
89 1 -1.90077 -6.99671 0.119456 -3.47891
90 1 -3.60577 -5.39483 0.14375 -3.44716
91 1 -0.119053 -7.0244 45.3446 -3.50333
92 1 1.64936 -5.33648 -1.91117 -3.47064
93 1 1.60988 -7.22564 0.26584 -3.48962
94 1 -0.0348841 -5.16404 -0.0370734 -3.51652
95 1 3.22891 -7.16566 -1.93085 -3.44109
96 1 5.22355 -5.58895 -1.91007 -3.48904
97 1 5.26761 -7.21562 0.0467883 -3.4573
98 1 3.37789 -5.40935 -0.00889596 -3.51014
99 1 6.93104 -7.33211 -1.90527 -3.45739
100 1 8.66367 -5.5906 -1.73436 -3.45834
101 1 8.67285 -7.13161 0.175843 -3.43358
102 1 7.02926 -5.52752 0.214653 -3.40731
103 1 10.4998 -7.09483 -1.83825 -3.42438
104 1 12.2162 -5.41024 45.123 -3.4846
105 1 12.3129 -7.13322 0.0172838 -3.42243
106 1 10.5805 -5.4608 0.120998 -3.52716
107 1 14.1554 -7.09572 45.1695 -3.39491
108 1 15.829 -5.24799 45.0405 -2.98858
109 1 15.7268 -6.70756 0.0641584 -2.74568
110 1 13.8871 -5.27207 0.00861384 -3.43258
111 1 -15.7526 -1.74011 45.1681 -3.08637
112 1 -15.6099 -3.44277 0.0131904 -2.99691
113 1 -13.8713 -3.46835 45.2035 -3.48167
114 1 -12.1133 -1.6649 45.0509 -3.48097
115 1 -12.383 -3.55574 0.125443 -3.48444
116 1 -13.9507 -1.75252 0.205046 -3.42842
117 1 -10.4172 -3.52955 45.2532 -3.53403
118 1 -8.76544 -1.54606 45.2272 -3.44283
119 1 -8.79331 -3.37868 0.161288 -3.48697
120 1 -10.5126 -1.6373 0.0859901 -3.46824
121 1 -7.13206 -3.44558 -1.9149 -3.52941
122 1 -5.27068 -1.73229 45.3066 -3.48553
123 1 -5.34296 -3.49969 0.246099 -3.45407
124 1 -7.01488 -1.62728 0.145714 -3.47724
125 1 -3.68292 -3.45168 45.1826 -3.46873
126 1 -1.85603 -1.7727 45.262 -3.46718
127 1 -1.8765 -3.44299 0.0559852 -3.47978
128 1 -3.61632 -1.85356 0.218139 -3.46374
129 1 0.0397172 -3.5433 -1.88646 -3.46049
130 1 1.88642 -1.86134 45.2476 -3.47788
131 1 1.83171 -3.50551 -0.0743867 -3.44361
132 1 0.00396945 -1.91812 -0.0269291 -3.48054
133 1 3.68709 -3.64321 45.1486 -3.51634
134 1 5.40417 -1.73872 45.1743 -3.51069
135 1 5.28184 -3.53861 -0.0257785 -3.50041
136 1 3.56315 -1.67787 0.0488536 -3.4618
137 1 6.99326 -3.67114 -1.87566 -3.50939
138 1 8.77521 -1.82202 45.1803 -3.51225
139 1 8.58962 -3.67268 0.0567021 -3.48834
140 1 7.10211 -1.61589 0.00637786 -3.44352
141 1 10.4073 -3.79866 45.1113 -3.48519
142 1 12.2359 -1.66558 -1.93746 -3.51818
143 1 12.1533 -3.40742 -0.0428154 -3.50707
144 1 10.4194 -1.59529 0.129005 -3.47757
145 1 13.9982 -3.58498 45.2425 -3.45209
146 1 15.7667 -1.88658 45.0005 -3.14936
147 1 15.832 -3.60896 -0.133152 -3.04577
148 1 14.1696 -1.83898 -0.0164991 -3.42023
149 1 -17.2584 0.00937137 -1.72645 -2.33673
150 1 -15.6949 1.83574 45.34 -3.16069
151 1 -15.7024 0.137187 0.22317 -3.189
152 1 -13.8737 -0.106777 45.2718 -3.46957
153 1 -12.2389 1.69279 45.2718 -3.50824
154 1 -12.203 -0.0667203 0.196536 -3.4338
155 1 -13.8712 1.92023 0.126853 -3.46113
156 1 -10.3866 0.0854878 -1.8875 -3.45514
157 1 -8.7552 1.96232 -1.8556 -3.48629
158 1 -8.72146 0.216679 0.159964 -3.52731
159 1 -10.5608 1.77098 0.215233 -3.50767
160 1 -7.0248 0.119013 -1.81983 -3.52365
161 1 -5.09859 1.89375 45.35 -3.51587
162 1 -5.40243 0.0400463 0.115991 -3.46442
163 1 -6.88266 2.00432 0.116321 -3.47484
164 1 -3.42977 -0.0500022 -1.75992 -3.47413
165 1 -1.75219 1.72681 -1.75012 -3.52412
166 1 -1.71605 -0.147948 0.207186 -3.53205
167 1 -3.48571 1.74029 0.231125 -3.49261
168 1 0.0307523 -0.0506944 -1.7757 -3.5345
169 1 1.83075 1.73237 45.4161 -3.49736
170 1 1.74039 -0.0126654 0.213577 -3.52523
171 1 0.0122467 1.74357 0.233295 -3.50786
172 1 3.54578 -0.0412214 45.2722 -3.48211
173 1 5.38879 1.76301 -1.89735 -3.44799
174 1 5.14957 0.191262 0.0609094 -3.46225
175 1 3.54624 1.87082 0.11403 -3.43275
176 1 7.1166 0.14654 45.1517 -3.45909
177 1 8.76555 1.80431 -1.95262 -3.40687
178 1 8.66175 0.0704934 0.169064 -3.39916
179 1 7.02543 1.83075 0.159273 -3.49075
180 1 10.3674 0.0586094 45.108 -3.46407
181 1 12.1594 1.66788 -1.82374 -3.487
182 1 12.3179 -0.0583013 0.0313911 -3.47736
183 1 10.5795 1.60354 0.194546 -3.47853
184 1 14.0563 0.135208 45.1069 -3.50963
185 1 15.9637 1.89753 45.1288 -3.07916
186 1 15.827 -0.0793627 -0.105732 -3.14047
187 1 14.2609 1.86911 -0.00972243 -3.44376
188 1 17.4183 0.067539 45.163 -2.30767
189 1 -15.879 5.09447 -1.86709 -2.98532
190 1 -15.8758 3.63857 0.0766565 -3.02041
191 1 -13.967 3.53308 -1.884 -3.46449
192 1 -12.1917 5.51038 -1.73992 -3.44562
193 1 -12.2841 3.66093 0.115017 -3.46686
194 1 -14.0776 5.24694 -0.0447641 -3.43768
195 1 -10.4844 3.60373 -1.83745 -3.48929
196 1 -8.72253 5.34453 45.2767 -3.50198
197 1 -8.81606 3.56177 0.00496595 -3.49814
198 1 -10.5007 5.49691 0.0882077 -3.49052
199 1 -6.94498 3.67067 -1.86648 -3.51826
200 1 -5.12687 5.47993 45.3576 -3.48748
201 1 -5.20792 3.63717 0.250474 -3.48311
202 1 -7.0376 5.41671 0.112154 -3.5228
203 1 -3.40845 3.60682 -1.79523 -3.4753
204 1 -1.56469 5.19752 45.3855 -3.44238
205 1 -1.7319 3.48154 0.178353 -3.49051
206 1 -3.31273 5.38058 0.214254 -3.50353
207 1 0.118481 3.56828 -1.75854 -3.46567
208 1 1.85592 5.22257 -1.81737 -3.5012
209 1 1.73263 3.53424 0.251299 -3.47057
210 1 0.0767911 5.21862 0.217963 -3.49233
211 1 3.62074 3.48284 -1.74803 -3.51765
212 1 5.42487 5.24368 -1.91455 -3.42717
213 1 5.27302 3.60358 0.123371 -3.51496
214 1 3.44012 5.31921 0.151603 -3.51904
215 1 6.94255 3.52655 45.368 -3.4336
216 1 8.88982 5.36646 -1.67249 -3.46493
217 1 8.88101 3.44321 0.0654997 -3.51001
218 1 7.06703 5.42906 0.295476 -3.48331
219 1 10.4934 3.5719 -1.86126 -3.49789
220 1 12.3485 5.3835 45.169 -3.47817
221 1 12.2249 3.39891 0.179809 -3.4681
222 1 10.6282 5.17306 0.0709448 -3.4719
223 1 13.9084 3.53505 45.1978 -3.49631
224 1 15.6971 5.31787 45.0048 -2.9558
225 1 15.9251 3.63966 -0.102881 -2.99094
226 1 13.9532 5.16127 0.0576947 -3.46798
227 1 -15.9545 6.76576 0.176542 -2.71692
228 1 -14.2678 6.92824 45.1768 -3.34083
229 1 -12.5567 8.77322 -2.05294 -3.45789
230 1 -12.3254 7.17141 0.0280416 -3.49874
231 1 -14.2236 8.61399 -0.0259587 -3.08498
232 1 -10.6127 7.20615 -1.97746 -3.4646
233 1 -8.81758 8.89846 -1.93932 -3.45322
234 1 -8.73928 7.21836 0.149103 -3.48241
235 1 -10.4327 9.05238 0.0202183 -3.48732
236 1 -6.94039 7.16641 -1.92349 -3.45595
237 1 -5.21607 8.92032 -1.82394 -3.50157
238 1 -5.19685 7.12222 0.142667 -3.49423
239 1 -6.92278 8.84905 0.159221 -3.49216
240 1 -3.38716 7.18447 -1.70788 -3.50967
241 1 -1.58628 8.91136 -1.83598 -3.48256
242 1 -1.61402 7.13086 0.183607 -3.50466
243 1 -3.34958 9.08542 0.116667 -3.53999
244 1 0.108163 6.9951 -1.69158 -3.51449
245 1 1.82957 8.77353 -1.91765 -3.47862
246 1 1.71012 7.11034 0.187141 -3.49661
247 1 0.00918581 8.95895 0.144361 -3.47128
248 1 3.62042 7.10016 45.2974 -3.51576
249 1 5.39333 8.91823 -1.88705 -3.43163
250 1 5.30326 6.9681 0.173516 -3.43235
251 1 3.51692 8.7873 0.235639 -3.52017
252 1 7.12539 7.09645 -1.81439 -3.49975
253 1 8.87567 8.761 -1.69663 -3.50737
254 1 8.76359 7.1284 0.315023 -3.40515
255 1 7.00957 8.57491 0.193118 -3.42373
256 1 10.5544 7.01022 45.3277 -3.44057
257 1 12.2687 8.76541 -1.87469 -3.44047
258 1 12.2567 7.17183 0.106861 -3.47742
259 1 10.4837 8.85537 0.3319 -3.48091
260 1 14.0975 7.00716 45.1916 -3.33006
261 1 15.8034 6.72426 0.105136 -2.70817
262 1 14.1243 8.86079 0.297484 -3.02087
263 1 -14.341 10.3521 45.267 -2.5646
264 1 -12.3406 12.1421 44.9519 -2.83686
265 1 -12.6051 10.429 -0.110678 -3.24289
266 1 -10.5792 10.4806 45.1411 -3.4496
267 1 -8.72236 12.2587 45.0395 -3.40818
268 1 -8.58322 10.6646 0.162947 -3.4811
269 1 -10.7178 12.1924 0.0887992 -3.29949
270 1 -6.8754 10.7275 45.2161 -3.48821
271 1 -5.05639 12.3272 45.1902 -3.48133
272 1 -5.23413 10.6962 0.120369 -3.50788
273 1 -7.01498 12.4298 0.057774 -3.44814
274 1 -3.35512 10.5588 -1.83293 -3.4883
275 1 -1.64241 12.3477 -1.93379 -3.52328
276 1 -1.4398 10.8179 0.15648 -3.47318
277 1 -3.35123 12.32 0.0205048 -3.48887
278 1 0.184747 10.5999 -1.7794 -3.5012
279 1 1.8795 12.5641 -1.90184 -3.49573
280 1 1.82502 10.6288 0.0541758 -3.4942
281 1 0.19472 12.586 -0.0628762 -3.50174
282 1 3.59988 10.6746 45.3065 -3.52582
283 1 5.4067 12.3762 45.1756 -3.48332
284 1 5.40756 10.5852 0.145619 -3.51852
285 1 3.58927 12.2461 0.120553 -3.44204
286 1 7.02024 10.5484 -1.75534 -3.42645
287 1 8.7337 12.278 45.298 -3.40402
288 1 8.81513 10.5792 0.13184 -3.49223
289 1 7.09497 12.4269 0.196712 -3.49538
290 1 10.6299 10.5339 -1.71528 -3.50686
291 1 12.6921 12.0551 -1.6241 -2.7196
292 1 12.5074 10.5488 0.283366 -3.23188
293 1 10.7216 12.2753 0.406731 -3.30207
294 1 14.2404 10.2268 -1.99148 -2.66658
295 1 -10.5328 13.7376 45.1865 -2.70825
296 1 -8.79036 14.0685 0.042296 -3.07533
297 1 -6.98586 14.0089 45.1148 -3.38279
298 1 -5.06963 15.837 45.1072 -2.98194
299 1 -5.20752 14.2406 -0.0268046 -3.3788
300 1 -6.87583 15.738 0.151788 -2.63082
301 1 -3.43609 14.0858 45.211 -3.42406
302 1 -1.6443 15.7877 45.1465 -3.12053
303 1 -1.78206 14.1655 0.0630163 -3.40074
304 1 -3.35997 16.0183 0.0556439 -2.97547
305 1 0.0521048 14.1487 45.0233 -3.41331
306 1 2.14509 15.9654 45.2994 -3.11504
307 1 2.06961 14.0798 0.1499 -3.34893
308 1 0.215147 15.372 0.0555871 -3.05787
309 1 3.70711 14.1436 45.1774 -3.42121
310 1 5.36744 16.0845 45.008 -2.94722
311 1 5.25967 14.0349 -0.0411888 -3.38961
312 1 3.72356 15.892 0.196215 -3.01819
313 1 7.05609 14.1495 -1.943 -3.32423
314 1 8.91275 14.1431 0.031038 -3.02822
315 1 7.08287 15.6504 0.0163458 -2.74736
316 1 10.7411 13.4152 -1.93508 -2.72745
317 1 0.0840352 17.2844 -1.08589 -2.42087
318 1 -5.44839 -15.8675 2.17493 -2.93929
319 1 -7.1782 -15.5345 4.04437 -2.70693
320 1 -1.78528 -15.9563 1.93234 -3.09716
321 1 -3.37289 -16.1688 3.95499 -2.91436
322 1 0.00269365 -17.5126 1.79528 -2.38453
323 1 1.85483 -15.8716 2.27456 -3.14162
324 1 -0.158433 -16.0401 3.84656 -3.19506
325 1 5.29801 -15.57 2.21007 -2.97072
326 1 3.66853 -15.7754 4.0439 -3.01907
327 1 6.86212 -15.7051 4.01485 -2.70701
328 1 -12.302 -12.0785 2.40661 -2.80003
329 1 -10.54 -14.0128 2.1245 -2.70001
330 1 -8.90955 -12.3318 2.1106 -3.42571
331 1 -9.02532 -13.9364 4.05308 -3.07086
332 1 -10.6128 -12.2478 4.05711 -3.26837
333 1 -7.14189 -14.1204 2.06811 -3.34565
334 1 -5.25079 -12.2828 2.1445 -3.51706
335 1 -5.36998 -14.1173 4.04164 -3.39506
336 1 -7.08967 -12.2933 4.09183 -3.53506
337 1 -3.60141 -14.1956 2.22518 -3.44155
338 1 -1.82796 -12.4196 1.988 -3.52032
339 1 -1.85935 -14.2994 3.84829 -3.39177
340 1 -3.48467 -12.4727 3.95606 -3.47481
341 1 -0.0922943 -14.2329 2.08294 -3.46165
342 1 1.69102 -12.3862 2.30062 -3.48795
343 1 1.7875 -14.0945 4.15076 -3.46244
344 1 -0.12033 -12.6003 4.1653 -3.43676
345 1 3.52339 -13.9236 2.158 -3.44559
346 1 5.20141 -12.1678 2.24698 -3.46818
347 1 5.18802 -13.8749 4.05718 -3.44338
348 1 3.39896 -12.1874 4.25694 -3.46767
349 1 7.03097 -13.9034 2.08953 -3.3879
350 1 8.80029 -12.0909 2.15935 -3.45157
351 1 8.90619 -14.0524 4.0738 -3.03973
352 1 7.10389 -12.2705 4.01567 -3.52545
353 1 10.3465 -13.8885 2.04812 -2.70743
354 1 12.5394 -12.1461 1.82324 -2.78652
355 1 10.5884 -12.2532 4.08416 -3.32183
356 1 -14.0161 -10.4005 2.17499 -2.70646
357 1 -12.1677 -8.53765 2.17171 -3.52425
358 1 -12.2466 -10.2916 4.06857 -3.36341
359 1 -14.1608 -8.60854 4.08114 -3.10487
360 1 -10.6304 -10.5389 2.04651 -3.44376
361 1 -8.78459 -8.82832 2.07658 -3.5189
362 1 -8.81028 -10.4812 4.06147 -3.48798
363 1 -10.4496 -8.64573 4.01132 -3.48424
364 1 -7.11413 -10.7202 2.11416 -3.49405
365 1 -5.31616 -8.97433 1.99351 -3.50678
366 1 -5.14039 -10.5747 3.96628 -3.47694
367 1 -6.97826 -8.91863 3.94394 -3.48506
368 1 -3.47724 -10.5895 1.95487 -3.50209
369 1 -1.63045 -8.94555 2.1285 -3.38938
370 1 -1.78301 -10.7169 4.01412 -3.44472
371 1 -3.43069 -8.94584 4.04968 -3.49795
372 1 -0.124168 -10.6586 2.08478 -3.42828
373 1 1.68849 -8.8133 2.18163 -3.4843
374 1 1.54375 -10.6372 4.02064 -3.49317
375 1 -0.1978 -8.9807 4.09789 -3.42029
376 1 3.51502 -10.3742 2.16875 -3.44031
377 1 5.22789 -8.85227 2.17672 -3.43255
378 1 5.23872 -10.5374 4.25765 -3.50791
379 1 3.42325 -8.69927 4.0506 -3.51915
380 1 6.89373 -10.5835 2.01711 -3.42021
381 1 8.83687 -9.02777 2.09158 -3.47157
382 1 8.82014 -10.3978 4.09476 -3.4985
383 1 6.95959 -8.8104 4.15756 -3.46113
384 1 10.6804 -10.4784 2.12705 -3.45776
385 1 12.4133 -8.74422 2.0665 -3.38684
386 1 12.4638 -10.6563 3.97776 -3.27386
387 1 10.8297 -8.91102 4.05553 -3.47868
388 1 14.0856 -10.371 1.98526 -2.71859
389 1 14.0615 -8.59805 3.87411 -3.11605
390 1 -15.7943 -5.23821 1.96817 -2.96666
391 1 -15.8745 -6.75253 3.99484 -2.72884
392 1 -14.099 -6.8486 2.07108 -3.25998
393 1 -12.3112 -5.45151 2.14923 -3.42112
394 1 -12.2486 -7.017 4.28929 -3.48398
395 1 -14.062 -5.14672 4.15916 -3.49087
396 1 -10.3581 -6.88739 2.18175 -3.4681
397 1 -8.61794 -5.19265 2.00496 -3.50614
398 1 -8.53127 -7.00735 3.93483 -3.4832
399 1 -10.5336 -5.30091 4.09264 -3.4565
400 1 -6.98666 -7.1254 2.12912 -3.43441
401 1 -5.4261 -5.32404 2.16065 -3.48086
402 1 -5.30125 -6.95604 4.0147 -3.50602
403 1 -6.99 -5.17187 4.03879 -3.48811
404 1 -3.52341 -7.13794 2.05402 -3.55291
405 1 -1.89233 -5.15659 2.04547 -3.50202
406 1 -1.66802 -7.04467 3.97783 -3.4938
407 1 -3.41105 -5.27193 4.13192 -3.41643
408 1 -0.219699 -7.04434 2.02914 -3.46084
409 1 1.68692 -5.21023 1.97376 -3.48065
410 1 1.44991 -7.11859 4.04052 -3.51459
411 1 -0.0776498 -5.18534 3.9493 -3.50053
412 1 3.52859 -7.06171 2.12263 -3.49667
413 1 5.2154 -5.37526 2.13623 -3.40095
414 1 5.26113 -6.97513 3.96656 -3.48605
415 1 3.38253 -5.32749 4.02388 -3.48822
416 1 6.92205 -7.06748 2.15238 -3.48138
417 1 8.76293 -5.31458 2.23246 -3.47152
418 1 8.79243 -7.21369 4.15895 -3.50479
419 1 7.17038 -5.27399 4.11666 -3.50614
420 1 10.6071 -7.11703 2.15329 -3.50219
421 1 12.1963 -5.27642 2.12702 -3.50019
422 1 12.3106 -6.96517 4.09602 -3.46292
423 1 10.4223 -5.25208 4.04723 -3.50076
424 1 14.0698 -7.00782 1.83442 -3.3286
425 1 15.6793 -5.13223 1.83073 -2.99717
426 1 15.6806 -6.72303 3.86154 -2.75087
427 1 13.8962 -5.09158 4.05507 -3.40456
428 1 -15.7637 -1.91703 2.10556 -3.12389
429 1 -15.9552 -3.54448 4.07858 -2.98664
430 1 -13.8982 -3.59509 2.04451 -3.4794
431 1 -12.1492 -1.7495 2.02498 -3.46092
432 1 -12.0879 -3.56924 4.02362 -3.43475
433 1 -13.8171 -1.96935 3.98944 -3.47171
434 1 -10.5843 -3.66958 1.98544 -3.52184
435 1 -8.7576 -1.75178 2.16194 -3.50274
436 1 -8.87901 -3.47234 4.09021 -3.52318
437 1 -10.5535 -1.65197 4.03167 -3.47777
438 1 -6.9493 -3.37557 2.03613 -3.43495
439 1 -5.21429 -1.6709 2.10855 -3.46922
440 1 -5.15427 -3.48783 4.11093 -3.51434
441 1 -6.98517 -1.9242 3.91714 -3.47152
442 1 -3.71906 -3.56316 2.08029 -3.4637
443 1 -1.70549 -1.71274 2.10671 -3.52497
444 1 -1.91854 -3.51558 3.9697 -3.41061
445 1 -3.41516 -1.74555 4.11166 -3.43959
446 1 0.07912 -3.48669 2.08253 -3.42229
447 1 1.81291 -1.94295 1.90453 -3.46064
448 1 1.81894 -3.57337 3.97159 -3.45631
449 1 0.0213615 -1.83233 4.13718 -3.48961
450 1 3.54556 -3.69896 2.10952 -3.45159
451 1 5.22183 -1.7158 1.94428 -3.48216
452 1 5.21702 -3.65324 4.07868 -3.47159
453 1 3.63509 -1.90137 3.85826 -3.45656
454 1 7.00969 -3.59877 2.02954 -3.50285
455 1 8.60452 -1.64114 2.08803 -3.4911
456 1 8.83865 -3.45882 4.01131 -3.46017
457 1 6.87507 -1.8047 3.99044 -3.51229
458 1 10.4682 -3.49774 2.0279 -3.52461
459 1 12.3142 -1.67848 2.05183 -3.50339
460 1 12.195 -3.41888 4.02012 -3.46321
461 1 10.5484 -1.71133 4.03181 -3.4381
462 1 13.9018 -3.47663 1.81189 -3.41842
463 1 15.8547 -2.06959 1.94147 -3.07676
464 1 15.9841 -3.70322 3.79197 -2.99635
465 1 14.1768 -1.88072 3.92325 -3.49961
466 1 -17.0689 0.111934 2.08427 -2.55974
467 1 -15.4215 1.90131 1.97148 -3.13508
468 1 -15.7318 -0.281969 4.00037 -3.19692
469 1 -14.0442 0.0553049 1.99624 -3.45656
470 1 -12.3364 1.75041 2.14281 -3.54346
471 1 -12.3351 -0.018183 3.99121 -3.47827
472 1 -14.0578 1.65549 4.0679 -3.52065
473 1 -10.5607 -0.0621655 2.06962 -3.45471
474 1 -8.65438 1.79208 2.0228 -3.48265
475 1 -8.67613 -0.0620313 3.91666 -3.49021
476 1 -10.4713 1.69908 3.97734 -3.52893
477 1 -6.93613 0.0213189 2.03774 -3.48255
478 1 -5.19405 1.79116 2.018 -3.50555
479 1 -5.21911 0.00198808 4.02279 -3.53223
480 1 -7.02342 1.75013 3.83466 -3.47352
481 1 -3.45788 0.0928835 2.15797 -3.47293
482 1 -1.78413 1.80051 1.95901 -3.45686
483 1 -1.74459 -0.0377106 4.0021 -3.50089
484 1 -3.51983 1.80679 4.13849 -3.4921
485 1 0.170535 -0.0216674 2.14684 -3.52074
486 1 1.96117 1.69408 2.15962 -3.4869
487 1 1.81414 -0.0558287 4.08899 -3.5225
488 1 0.0198284 1.71666 4.00025 -3.50809
489 1 3.4562 -0.145809 2.12899 -3.45212
490 1 5.19593 1.84165 2.03369 -3.49473
491 1 5.20726 -0.0781457 4.02416 -3.43034
492 1 3.55535 1.74653 4.10829 -3.50947
493 1 6.85866 0.120589 2.25361 -3.44053
494 1 8.73091 1.78612 2.08209 -3.51561
495 1 8.7848 0.0518077 4.22744 -3.44988
496 1 6.93599 1.69249 4.11818 -3.47639
497 1 10.489 -0.0570994 2.14742 -3.47627
498 1 12.3845 1.50653 2.19983 -3.47026
499 1 12.4684 -0.088381 4.07131 -3.48865
500 1 10.5325 1.65753 4.17588 -3.49259
501 1 14.3233 0.0411714 2.07234 -3.51846
502 1 16.0008 2.07915 2.10619 -2.99062
503 1 15.9603 -0.115396 4.27675 -3.11241
504 1 14.3116 1.68787 3.96122 -3.42347
505 1 17.0099 0.0244438 2.02164 -2.49167
506 1 -15.7228 5.21113 2.09783 -2.95381
507 1 -15.4349 3.78739 4.13334 -3.15937
508 1 -13.896 3.79185 2.13828 -3.39979
509 1 -12.2168 5.40939 1.8968 -3.44153
510 1 -12.099 3.59018 4.03335 -3.4684
511 1 -13.6754 5.55302 4.03511 -3.43998
512 1 -10.5189 3.61171 2.03094 -3.52603
513 1 -8.78192 5.43379 1.9853 -3.51248
514 1 -8.7209 3.64962 4.03741 -3.54124
515 1 -10.6178 5.44639 3.96445 -3.5032
516 1 -6.98348 3.60047 2.11232 -3.51362
517 1 -5.18209 5.49222 2.09284 -3.52863
518 1 -5.33289 3.54873 4.14866 -3.47812
519 1 -6.93249 5.3907 4.05654 -3.46025
520 1 -3.47046 3.615 2.07354 -3.48089
521 1 -1.75767 5.25462 2.25698 -3.47257
522 1 -1.78642 3.40189 3.9986 -3.45523
523 1 -3.53227 5.25868 4.10691 -3.51537
524 1 0.0307441 3.51281 2.07549 -3.51799
525 1 1.8318 5.21361 2.25413 -3.46896
526 1 1.81297 3.41306 4.13766 -3.48788
527 1 -0.0769981 5.18724 4.13276 -3.5219
528 1 3.52895 3.51457 2.0902 -3.45293
529 1 5.28864 5.25008 2.21721 -3.49083
530 1 5.36374 3.49881 4.03888 -3.47045
531 1 3.45105 5.21299 4.03767 -3.483
532 1 7.00153 3.55135 2.08717 -3.47867
533 1 8.89483 5.00406 2.06192 -3.51088
534 1 8.68734 3.48054 4.08743 -3.53009
535 1 6.91563 5.2339 4.006 -3.42514
536 1 10.6162 3.28658 2.28699 -3.4653
537 1 12.331 5.14252 2.14263 -3.44435
538 1 12.435 3.32103 4.14476 -3.4749
539 1 10.6797 5.06975 3.95522 -3.47906
540 1 13.95 3.43953 2.02464 -3.39318
541 1 15.6575 5.07444 2.15499 -3.03235
542 1 15.8846 3.41981 4.20247 -2.96244
543 1 14.1072 5.03782 4.19447 -3.36185
544 1 -15.7381 6.62705 4.13339 -2.74665
545 1 -14.0753 6.98843 2.01957 -3.42154
546 1 -12.3864 8.8955 1.91623 -3.38382
547 1 -12.0653 7.43852 3.77888 -3.35554
548 1 -14.2513 8.42843 4.15592 -3.07055
549 1 -10.5475 7.19939 1.96435 -3.46682
550 1 -8.76414 8.89374 2.0717 -3.44661
551 1 -8.64425 7.06103 4.06994 -3.50463
552 1 -10.3344 8.92391 4.0597 -3.37868
553 1 -7.01853 7.18967 2.09694 -3.50673
554 1 -5.06765 8.81999 2.1001 -3.50215
555 1 -5.12229 7.15255 4.00371 -3.49085
556 1 -6.9602 8.92153 4.099 -3.51352
557 1 -3.28589 7.18024 2.1702 -3.46177
558 1 -1.66975 9.03718 2.08721 -3.48523
559 1 -1.58554 7.2334 3.96434 -3.434
560 1 -3.40607 8.87594 3.97536 -3.43239
561 1 0.0700074 7.13861 2.05046 -3.52832
562 1 1.79103 8.85834 2.12195 -3.46468
563 1 1.85184 7.02961 4.00799 -3.48373
564 1 0.141863 8.77353 4.11464 -3.45524
565 1 3.49658 7.02447 2.18931 -3.49532
566 1 5.24582 8.72686 2.22827 -3.50153
567 1 5.20182 7.00091 4.22405 -3.52305
568 1 3.51456 8.84398 4.18813 -3.48001
569 1 7.14578 6.97015 2.22682 -3.46431
570 1 8.79499 8.58859 2.3385 -3.41715
571 1 8.83531 6.78939 4.16743 -3.49878
572 1 7.07008 8.75636 4.20773 -3.52578
573 1 10.6819 6.878 1.92979 -3.47567
574 1 12.181 8.82265 2.1885 -3.43569
575 1 12.4407 6.85921 4.04172 -3.47314
576 1 10.5891 8.4686 4.05954 -3.48013
577 1 13.9457 7.06214 1.94447 -3.35204
578 1 15.6889 6.77613 4.07204 -2.6938
579 1 13.8944 8.77334 3.98899 -3.08793
580 1 -14.3417 9.99905 2.21808 -2.64219
581 1 -12.4153 11.752 2.01186 -2.88185
582 1 -12.5573 10.1885 4.17179 -3.30854
583 1 -10.409 10.5387 2.11597 -3.39255
584 1 -8.68218 12.3047 2.12439 -3.36929
585 1 -8.80365 10.5962 4.05799 -3.41798
586 1 -10.7612 12.061 4.2166 -3.30314
587 1 -6.88354 10.5247 2.12857 -3.52574
588 1 -5.25897 12.5131 2.04881 -3.50148
589 1 -5.06278 10.6105 4.01107 -3.49805
590 1 -6.7667 12.4231 4.05618 -3.48834
591 1 -3.44413 10.7669 2.02772 -3.52393
592 1 -1.5355 12.3553 2.16303 -3.5153
593 1 -1.62991 10.5804 3.94404 -3.49647
594 1 -3.28149 12.4951 4.13686 -3.50389
595 1 0.210144 10.5356 2.22216 -3.38071
596 1 1.72481 12.3097 2.01086 -3.49831
597 1 1.89206 10.6327 4.09258 -3.47035
598 1 0.143416 12.4029 4.16649 -3.51605
599 1 3.63075 10.5557 2.06456 -3.51966
600 1 5.49329 12.2113 2.15131 -3.51408
601 1 5.18067 10.6148 4.05474 -3.51904
602 1 3.48882 12.4488 3.97206 -3.50614
603 1 7.13079 10.2859 2.25016 -3.47283
604 1 8.7863 12.1085 2.14496 -3.3479
605 1 8.92173 10.4086 4.17012 -3.49766
606 1 7.15794 12.2663 4.04101 -3.50885
607 1 10.4712 10.5805 2.25653 -3.39741
608 1 12.3336 12.2453 2.28661 -2.78963
609 1 12.0454 10.7411 4.17297 -3.32359
610 1 10.2929 12.486 4.193 -3.31094
611 1 13.99 10.4442 2.17919 -2.68867
612 1 -10.6065 13.6145 2.02699 -2.69779
613 1 -8.89965 13.904 3.9531 -3.075
614 1 -7.07941 14.1634 1.98747 -3.2938
615 1 -5.07445 15.6544 2.09535 -2.99007
616 1 -5.08717 14.2465 3.97541 -3.34202
617 1 -7.0028 15.6373 4.17095 -2.69744
618 1 -3.35646 13.9848 1.99162 -3.41786
619 1 -1.71913 15.8078 2.1083 -3.13597
620 1 -1.59161 14.2203 4.10942 -3.44642
621 1 -3.31588 15.9193 3.96794 -2.96483
622 1 0.231451 14.2195 2.17612 -3.47532
623 1 2.07416 15.8511 2.10883 -3.11142
624 1 1.80288 14.234 4.07004 -3.44252
625 1 0.188676 16.1933 3.83038 -3.16808
626 1 3.65613 14.0304 2.0482 -3.47215
627 1 5.61408 15.6122 2.01356 -2.99607
628 1 5.49623 13.9484 3.96025 -3.41124
629 1 3.81816 15.8183 3.8897 -3.08263
630 1 7.42363 14.1295 2.06996 -3.30035
631 1 8.62118 14.3058 4.17873 -3.09138
632 1 6.79178 15.9473 4.27221 -2.70496
633 1 10.0957 14.1153 2.10595 -2.76184
634 1 0.198698 17.2303 1.57369 -2.56481
635 1 -5.54234 -15.6748 6.03147 -2.95455
636 1 -6.98632 -15.5552 7.96186 -2.75087
637 1 -1.90479 -15.9934 5.8924 -3.07232
638 1 -3.56193 -15.8516 7.82869 -3.02163
639 1 0.239312 -17.2063 5.92954 -2.44794
640 1 2.05062 -15.7318 5.93672 -2.99833
641 1 0.177184 -16.0368 7.96594 -3.16674
642 1 5.41179 -15.6384 6.23822 -2.97357
643 1 3.57524 -15.8849 7.85604 -3.01546
644 1 6.95792 -15.6511 8.09948 -2.72603
645 1 -12.3621 -11.9321 6.00966 -2.9151
646 1 -10.594 -13.7365 6.01355 -2.75915
647 1 -8.73483 -12.1537 5.9739 -3.39934
648 1 -8.94175 -13.8261 7.99728 -3.1071
649 1 -10.7079 -12.1964 7.91709 -3.26822
650 1 -7.21315 -13.9346 5.9883 -3.29911
651 1 -5.30676 -12.4153 5.90119 -3.51212
652 1 -5.17022 -14.0043 7.94143 -3.39792
653 1 -7.01209 -12.3118 8.0664 -3.51448
654 1 -3.54783 -14.2121 5.92228 -3.45115
655 1 -1.76205 -12.5103 5.8008 -3.44311
656 1 -1.63608 -14.3034 7.80907 -3.42778
657 1 -3.35862 -12.4581 7.92966 -3.48228
658 1 -0.0134133 -14.3612 6.06104 -3.49911
659 1 1.65485 -12.3977 6.12177 -3.54369
660 1 1.88436 -14.1825 8.02602 -3.46629
661 1 -0.00520395 -12.4486 8.07697 -3.47555
662 1 3.55797 -14.0544 6.09184 -3.38632
663 1 5.28178 -12.2394 6.11203 -3.52178
664 1 5.31013 -13.9041 7.96781 -3.43056
665 1 3.48326 -12.2749 7.93326 -3.51637
666 1 7.26742 -13.9695 5.99261 -3.38478
667 1 8.80602 -11.9828 6.11637 -3.41016
668 1 8.81349 -14.0523 7.96614 -3.09261
669 1 7.1723 -12.2777 7.97833 -3.48626
670 1 10.2499 -13.8589 6.04962 -2.77561
671 1 12.3022 -12.2548 5.94304 -2.86397
672 1 10.814 -12.4499 7.99379 -3.27671
673 1 -14.1551 -10.1317 5.95276 -2.67812
674 1 -12.3838 -8.7508 6.1118 -3.36238
675 1 -12.3373 -10.3407 7.98434 -3.33695
676 1 -14.4769 -8.64464 7.92892 -3.05645
677 1 -10.4432 -10.3662 5.84316 -3.48597
678 1 -8.64293 -8.66919 5.8213 -3.46948
679 1 -8.80178 -10.6011 7.92901 -3.49742
680 1 -10.2558 -8.62279 7.94861 -3.42933
681 1 -7.01927 -10.4525 5.95529 -3.47913
682 1 -5.17621 -8.8501 6.04763 -3.47422
683 1 -5.13928 -10.5487 8.06053 -3.46878
684 1 -6.95903 -8.93813 8.03305 -3.5235
685 1 -3.55477 -10.6791 6.0257 -3.51056
686 1 -1.89824 -8.64673 6.14374 -3.43346
687 1 -1.79368 -10.6272 7.96673 -3.47676
688 1 -3.52532 -8.88 7.85321 -3.37468
689 1 -0.0790224 -10.6003 6.21386 -3.48725
690 1 1.76153 -8.79518 5.9891 -3.48577
691 1 1.59181 -10.5216 7.93305 -3.47779
692 1 -0.0708612 -8.70495 7.99313 -3.5181
693 1 3.33872 -10.5667 6.0445 -3.47068
694 1 5.21247 -8.66794 6.08174 -3.51962
695 1 5.36173 -10.523 7.99236 -3.51104
696 1 3.55486 -8.86525 7.9543 -3.49663
697 1 7.05722 -10.4162 6.01491 -3.41788
698 1 8.79825 -8.80161 6.1464 -3.42506
699 1 9.03855 -10.6078 8.15565 -3.45486
700 1 7.24263 -8.72518 7.94774 -3.52486
701 1 10.7053 -10.3629 6.11582 -3.46807
702 1 12.4649 -8.70143 6.12133 -3.37006
703 1 12.5656 -10.6015 7.7975 -3.26403
704 1 10.6841 -8.78087 8.00654 -3.50835
705 1 14.0598 -10.4022 5.83882 -2.69411
706 1 14.1747 -8.72876 7.92487 -3.06932
707 1 -15.9779 -5.28244 5.91411 -2.91863
708 1 -15.9136 -6.46747 8.01152 -2.73925
709 1 -14.2189 -7.05294 5.98914 -3.38216
710 1 -12.3241 -5.20736 6.10037 -3.47282
711 1 -12.2293 -7.21224 8.01459 -3.44666
712 1 -13.854 -5.51155 8.03108 -3.35639
713 1 -10.4838 -6.98496 6.01699 -3.49586
714 1 -8.79338 -5.26953 5.9699 -3.488
715 1 -8.6657 -6.97732 8.04051 -3.38623
716 1 -10.4402 -5.46241 7.97491 -3.4974
717 1 -6.88325 -6.95319 5.98324 -3.49282
718 1 -5.28039 -5.22793 6.04249 -3.45121
719 1 -5.20558 -7.14021 8.03882 -3.514
720 1 -6.95274 -5.33179 7.97286 -3.50238
721 1 -3.63285 -6.98359 5.86531 -3.44681
722 1 -1.87304 -5.30534 5.96268 -3.47841
723 1 -1.83283 -6.94641 7.89934 -3.46413
724 1 -3.61357 -5.2641 7.99743 -3.49911
725 1 -0.11943 -7.06468 5.9893 -3.49117
726 1 1.73708 -5.23864 6.00259 -3.46261
727 1 1.83331 -6.91134 7.90279 -3.49828
728 1 -0.0963948 -5.3344 8.0308 -3.47489
729 1 3.44835 -7.0453 5.91713 -3.45159
730 1 5.23181 -5.33601 5.93663 -3.51362
731 1 5.28158 -7.02547 8.04628 -3.48936
732 1 3.52453 -5.2282 7.89922 -3.47352
733 1 7.18852 -6.98849 5.98406 -3.47837
734 1 8.87289 -5.25363 6.11404 -3.50433
735 1 8.91389 -6.91282 8.19095 -3.43682
736 1 7.10497 -5.44704 7.9677 -3.44734
737 1 10.5625 -7.06583 6.08556 -3.51957
738 1 12.1096 -5.15421 6.08947 -3.51729
739 1 12.3247 -6.91269 8.04434 -3.52857
740 1 10.564 -5.0852 8.17429 -3.45347
741 1 13.9431 -6.79898 5.97261 -3.35428