ITEM: TIMESTEP
168000
ITEM: NUMBER OF ATOMS
3804
ITEM: BOX BOUNDS ss ss pp
-1.8006702776589513e+01 1.7893679345233007e+01
-1.7635150796756957e+01 1.6711962357355691e+01
-3.6439200000000000e+00 4.7023920000000004e+01
ITEM: ATOMS id type x y z c_peratom
1 1 -6.0392 -14.7078 46.9917 -3.02622
2 1 -7.80674 -14.7754 -1.78666 -2.75086
3 1 -2.6039 -14.9318 -3.604 -3.00727
4 1 -4.4747 -15.1935 -1.70878 -2.82437
5 1 -0.209201 -15.5517 -2.94666 -2.7059
6 1 1.31429 -15.4648 45.6529 -2.87621
7 1 -0.191668 -14.3061 -0.875789 -3.1394
8 1 5.83224 -14.3134 46.4674 -2.85439
9 1 4.01871 -14.3905 -2.27533 -2.95186
10 1 6.11442 -13.5753 0.517019 -2.87807
11 1 -13.1752 -10.7634 -3.12288 -2.8913
12 1 -11.3792 -12.6657 -3.36493 -2.74829
13 1 -9.45387 -11.1541 -3.11686 -3.41548
14 1 -9.62769 -13.1019 -1.48624 -3.11289
15 1 -11.403 -11.3506 -1.28429 -3.33005
16 1 -7.83446 -12.9886 -3.44266 -3.35237
17 1 -5.98945 -11.3653 -3.19946 -3.5154
18 1 -5.94045 -13.217 -1.48929 -3.44127
19 1 -7.85066 -11.5477 -1.2537 -3.46952
20 1 -4.16134 -13.127 -3.4321 -3.4425
21 1 -2.56539 -12.9609 45.4137 -3.42116
22 1 -2.52485 -13.7019 -1.34935 -3.33155
23 1 -4.16381 -11.6496 -1.22363 -3.50401
24 1 -0.976798 -14.8537 45.2071 -3.20452
25 1 1.04754 -12.8758 45.4744 -3.53085
26 1 1.53907 -13.9092 -2.90994 -3.33515
27 1 -0.829076 -13.2157 -3.4347 -3.48108
28 1 3.40386 -13.7911 46.026 -3.3468
29 1 5.21432 -12.0201 46.0388 -3.44265
30 1 5.79563 -12.8593 -2.02465 -3.25116
31 1 3.4804 -12.1873 -2.72719 -3.4363
32 1 7.54717 -12.6444 46.808 -3.02731
33 1 9.32819 -10.9907 -3.76399 -3.21611
34 1 8.13945 -11.8916 0.463382 -2.92072
35 1 7.58402 -11.1729 -1.61934 -3.26037
36 1 9.95552 -11.5713 -1.31448 -2.72924
37 1 12.0364 -9.91614 -1.00528 -2.80344
38 1 9.90191 -10.0995 0.638327 -3.17403
39 1 -14.8342 -9.03818 -2.90487 -2.84459
40 1 -12.8589 -7.70741 -2.83535 -3.4281
41 1 -13.1582 -9.40143 -0.884837 -3.29392
42 1 -14.8848 -7.56802 -0.907683 -3.15192
43 1 -11.1678 -9.45271 -3.03428 -3.45896
44 1 -9.29637 -7.614 -2.97737 -3.49424
45 1 -9.51704 -9.7184 -1.14101 -3.48948
46 1 -11.0031 -7.81838 -1.0687 -3.38967
47 1 -7.61573 -9.6189 -3.01409 -3.43952
48 1 -5.92117 -9.52746 45.7588 -3.5035
49 1 -6.07857 -9.89343 -1.03582 -3.51559
50 1 -7.59304 -7.91567 -0.873855 -3.49834
51 1 -4.21494 -11.3066 45.3998 -3.38639
52 1 -2.44421 -9.58225 45.812 -3.49117
53 1 -2.44617 -11.3835 -3.12723 -3.47714
54 1 -4.23261 -9.57519 -2.88183 -3.49029
55 1 -0.78339 -11.2134 45.6052 -3.45166
56 1 1.13352 -9.56652 45.687 -3.49641
57 1 1.00627 -11.4897 -3.0367 -3.49083
58 1 -0.625565 -9.73294 -3.01025 -3.48763
59 1 2.98049 -11.1667 45.7121 -3.47993
60 1 4.7077 -9.47895 45.7873 -3.48586
61 1 5.14164 -10.4206 -2.47273 -3.48273
62 1 2.91296 -9.73886 -2.94501 -3.46687
63 1 7.01429 -10.5123 46.4452 -3.36415
64 1 8.99194 -8.5717 46.686 -3.46941
65 1 9.59922 -9.22863 -1.7155 -3.37337
66 1 7.14512 -8.90724 -2.25969 -3.48798
67 1 11.2801 -9.44706 -3.41844 -3.24014
68 1 13.1202 -7.645 -3.23143 -3.26286
69 1 11.9061 -8.4656 1.20825 -3.23264
70 1 11.3287 -7.56395 -1.35277 -3.44189
71 1 13.6622 -8.04377 -0.802111 -2.70899
72 1 13.6718 -6.51543 1.07932 -3.09195
73 1 -16.3792 -4.40343 -2.54552 -2.75621
74 1 -16.1922 -5.64203 -0.580802 -2.85216
75 1 -14.3839 -5.91962 -2.63422 -3.36294
76 1 -12.7284 -3.95588 -2.36012 -3.35725
77 1 -12.6735 -6.15459 -0.691856 -3.49811
78 1 -14.3726 -4.30321 -0.512348 -3.3872
79 1 -11.113 -5.91734 -2.80961 -3.52831
80 1 -9.35551 -5.76911 45.8561 -3.52551
81 1 -9.35673 -6.1217 -0.923801 -3.47099
82 1 -11.0138 -4.28765 -0.668544 -3.5072
83 1 -7.76429 -7.87613 45.7827 -3.39112
84 1 -5.90454 -6.02198 46.0652 -3.4716
85 1 -5.98563 -7.9724 -2.71788 -3.43333
86 1 -7.54669 -5.99903 -2.90904 -3.43786
87 1 -4.14436 -7.73002 45.8175 -3.50532
88 1 -2.32777 -6.01846 46.1264 -3.48472
89 1 -2.45962 -7.9261 -2.66507 -3.48758
90 1 -4.23444 -6.18547 -2.69853 -3.54186
91 1 -0.626135 -7.69111 45.9594 -3.5113
92 1 1.32474 -5.87543 46.0996 -3.51137
93 1 1.06683 -7.93802 -2.92102 -3.49212
94 1 -0.570869 -6.06202 -2.57462 -3.49411
95 1 2.92355 -7.85776 46.0987 -3.49307
96 1 4.79885 -5.98917 46.1221 -3.53253
97 1 4.91216 -7.99338 -2.94779 -3.46489
98 1 3.01148 -6.2423 -2.65749 -3.50823
99 1 6.63627 -7.75746 46.0482 -3.49969
100 1 8.35103 -6.05924 46.3805 -3.48617
101 1 8.92441 -6.94745 -1.8675 -3.5039
102 1 6.45983 -6.14353 -2.52676 -3.50338
103 1 10.6816 -6.7935 46.9668 -3.50092
104 1 12.6695 -5.1416 46.9686 -3.46918
105 1 13.1103 -5.7723 -1.34564 -3.32813
106 1 10.6719 -5.12681 -1.69242 -3.50602
107 1 14.9012 -5.80322 -2.93148 -3.06842
108 1 16.6298 -3.85066 -3.02866 -2.7785
109 1 15.2971 -4.75812 1.52913 -2.75938
110 1 14.9688 -3.89464 -0.963601 -3.23906
111 1 -15.4323 -0.280102 -3.09138 -3.07234
112 1 -16.4841 -3.03985 -0.468921 -2.90577
113 1 -14.7641 -2.74627 -2.38939 -3.24743
114 1 -13.1691 -2.39724 46.1632 -3.51678
115 1 -12.7575 -2.48835 -0.397574 -3.45728
116 1 -14.9155 -1.05611 -0.291081 -3.34888
117 1 -11.079 -3.84263 46.1771 -3.45882
118 1 -9.38869 -2.22671 46.313 -3.4601
119 1 -9.17354 -4.01196 -2.71831 -3.50765
120 1 -11.1396 -2.295 -2.35798 -3.40777
121 1 -7.50039 -4.13414 46.1381 -3.47985
122 1 -5.78115 -2.37737 46.1878 -3.50393
123 1 -5.8685 -4.25211 -2.65035 -3.48107
124 1 -7.4146 -2.37647 -2.47192 -3.46426
125 1 -4.13565 -4.26333 46.1646 -3.51026
126 1 -2.36908 -2.393 46.2546 -3.52583
127 1 -2.36409 -4.31999 -2.71746 -3.49844
128 1 -4.10293 -2.61711 -2.42771 -3.49378
129 1 -0.591145 -4.25925 46.2125 -3.5042
130 1 1.19379 -2.49778 46.2941 -3.47203
131 1 1.36258 -4.31759 -2.48553 -3.50353
132 1 -0.53937 -2.51245 -2.47213 -3.53184
133 1 3.103 -4.10041 46.2526 -3.48175
134 1 4.84686 -2.50463 46.4773 -3.48319
135 1 4.80294 -4.42576 -2.35658 -3.49071
136 1 3.01471 -2.59881 -2.17934 -3.46669
137 1 6.64744 -4.21772 46.4793 -3.50959
138 1 8.47543 -2.29991 46.6503 -3.48371
139 1 8.32813 -4.35671 -2.27144 -3.50353
140 1 6.67339 -2.55772 -2.18084 -3.52651
141 1 10.2053 -4.46464 46.4783 -3.49992
142 1 11.9249 -2.67293 46.5358 -3.48173
143 1 12.6197 -3.32775 -1.77837 -3.52251
144 1 10.0797 -2.63716 -2.11943 -3.51331
145 1 14.4225 -3.23821 -3.48764 -3.50069
146 1 16.2724 -1.50832 -3.46007 -3.10351
147 1 16.7554 -2.2435 -1.04943 -2.81294
148 1 14.4564 -1.45725 -1.57742 -3.49923
149 1 -17.1853 1.96176 40.2656 -2.65293
150 1 -16.0406 0.574959 45.2273 -2.96475
151 1 -15.3259 1.24765 -0.880596 -3.16689
152 1 -13.6962 0.143655 45.8333 -3.45271
153 1 -11.8627 1.91184 46.0653 -3.5057
154 1 -13.0066 -0.80831 -2.34489 -3.47429
155 1 -13.449 1.55389 -2.70284 -3.50669
156 1 -11.2725 -0.538763 46.5225 -3.51673
157 1 -9.4002 1.25699 46.5801 -3.47384
158 1 -9.24519 -0.636407 -2.27692 -3.51528
159 1 -11.056 0.963889 -2.18586 -3.47074
160 1 -7.48987 -0.586636 46.4605 -3.50799
161 1 -5.59842 1.17804 46.576 -3.45242
162 1 -5.62866 -0.697316 -2.31702 -3.45642
163 1 -7.35738 1.13331 -2.40666 -3.48306
164 1 -4.0234 -0.614527 46.4623 -3.48201
165 1 -2.28631 1.20912 46.5812 -3.53172
166 1 -2.26723 -0.706062 -2.22374 -3.49867
167 1 -3.99365 0.98194 -2.08098 -3.48058
168 1 -0.508288 -0.576589 46.4858 -3.54075
169 1 1.28526 1.13674 46.7103 -3.47888
170 1 1.25435 -0.808449 -2.23122 -3.50257
171 1 -0.583797 1.08987 -2.19093 -3.50892
172 1 2.78555 -0.728473 46.6117 -3.46232
173 1 4.86297 1.00624 46.8378 -3.44414
174 1 4.75756 -0.847212 -2.22581 -3.5096
175 1 2.98706 1.0188 -1.96273 -3.48237
176 1 6.62599 -0.658767 46.6857 -3.46966
177 1 8.40286 1.03836 46.825 -3.49494
178 1 8.43455 -0.764023 -1.96938 -3.51334
179 1 6.51837 0.911216 -2.09468 -3.47394
180 1 10.1913 -0.672836 46.6371 -3.44582
181 1 12.0535 1.12796 46.692 -3.45909
182 1 12.0043 -0.954535 -2.31644 -3.43839
183 1 10.378 0.973373 -2.11287 -3.44125
184 1 13.6696 -0.813574 46.7899 -3.39002
185 1 15.5427 0.813934 -3.57794 -3.30563
186 1 16.1867 0.225512 -1.32342 -3.10345
187 1 13.7385 0.86588 -1.72526 -3.44967
188 1 17.0974 1.0905 45.1061 -2.74085
189 1 -15.023 4.78938 44.7721 -2.93076
190 1 -15.9226 2.08167 47.2428 -2.82903
191 1 -14.2922 2.38661 45.4792 -3.31629
192 1 -12.3729 4.24657 45.5868 -3.44709
193 1 -11.6613 3.49351 -2.52635 -3.52733
194 1 -14.054 4.05077 -3.33103 -3.34183
195 1 -9.96006 3.60596 46.0438 -3.50129
196 1 -8.32703 5.51085 46.4362 -3.5089
197 1 -9.267 2.65027 -2.2375 -3.46675
198 1 -9.91871 5.26453 -2.39582 -3.47793
199 1 -7.37591 3.04254 46.6231 -3.52611
200 1 -5.73139 4.86533 46.8524 -3.47966
201 1 -5.68743 2.92751 -2.03788 -3.50053
202 1 -7.48542 4.64907 -1.93682 -3.46275
203 1 -3.98594 2.97098 46.7561 -3.50478
204 1 -2.09591 4.72523 46.957 -3.50371
205 1 -2.31607 2.78723 -1.86583 -3.49701
206 1 -4.02817 4.61884 -1.81397 -3.49951
207 1 -0.409693 2.94357 46.7713 -3.49612
208 1 1.4197 4.58407 -3.63792 -3.49116
209 1 1.27613 2.81662 -1.87398 -3.50988
210 1 -0.535108 4.59338 -1.80238 -3.52697
211 1 3.12548 2.76951 46.7608 -3.48683
212 1 4.92772 4.79229 47.2478 -3.51089
213 1 4.75365 2.75558 -1.92249 -3.51372
214 1 3.01366 4.59544 -1.71858 -3.48835
215 1 6.67417 2.8105 47.0063 -3.52032
216 1 8.49538 4.67429 47.2674 -3.48317
217 1 8.46031 2.6961 -1.72704 -3.52095
218 1 6.64135 4.5046 -1.60816 -3.54025
219 1 10.2611 2.82529 47.0999 -3.50668
220 1 12.0895 4.73744 -3.32321 -3.46192
221 1 12.0256 2.61317 -1.67416 -3.48305
222 1 10.1316 4.39335 -1.45512 -3.51634
223 1 13.7582 2.98256 -3.52002 -3.49323
224 1 15.736 4.45476 -3.28584 -3.06243
225 1 15.3904 2.69709 -1.56328 -3.24591
226 1 13.6885 4.57608 -1.4451 -3.44325
227 1 -14.8121 6.42421 46.9844 -2.81593
228 1 -13.1274 6.52303 45.2544 -3.38924
229 1 -11.4187 8.37668 45.2194 -3.44483
230 1 -12.391 5.8508 -3.03442 -3.43512
231 1 -13.1879 8.33629 46.9887 -3.03654
232 1 -10.6727 6.04648 45.8864 -3.47462
233 1 -8.92133 7.982 46.017 -3.48103
234 1 -8.13018 6.98962 -2.17829 -3.46986
235 1 -10.7382 7.63898 -2.87367 -3.51655
236 1 -6.42707 7.20509 46.4709 -3.49942
237 1 -4.68632 8.97722 46.7087 -3.49418
238 1 -5.85099 6.3206 -1.81057 -3.44389
239 1 -6.43319 8.85016 -2.15475 -3.51923
240 1 -3.9845 6.58224 -3.57664 -3.52191
241 1 -2.21765 8.32713 -3.43092 -3.51123
242 1 -2.23132 6.40668 -1.72803 -3.45543
243 1 -4.01336 8.03446 -1.52265 -3.50758
244 1 -0.25576 6.45 -3.57775 -3.52445
245 1 1.32505 8.31636 -3.40524 -3.49365
246 1 1.41021 6.3634 -1.5925 -3.4949
247 1 -0.525094 8.04878 -1.57891 -3.48669
248 1 2.99763 6.46749 -3.50111 -3.50043
249 1 4.90325 8.16447 -3.26986 -3.53949
250 1 4.8296 6.38289 -1.51306 -3.49805
251 1 3.07919 8.15312 -1.38434 -3.50482
252 1 6.79345 6.38705 -3.30213 -3.45243
253 1 8.51298 8.2375 -3.36865 -3.494
254 1 8.45974 6.3024 -1.46054 -3.49913
255 1 6.66331 7.98007 -1.3112 -3.48552
256 1 10.2969 6.35363 -3.26925 -3.51136
257 1 12.0109 8.16181 -3.11799 -3.46427
258 1 11.9722 6.20228 -1.29993 -3.47581
259 1 10.2851 8.06696 -1.1745 -3.48967
260 1 13.8908 6.44595 -3.36727 -3.35813
261 1 15.6692 6.18592 -1.38301 -2.62765
262 1 13.9762 8.08171 -1.03915 -3.03966
263 1 -13.579 9.11202 44.338 -2.83697
264 1 -11.5987 10.8684 44.7825 -2.87447
265 1 -11.1978 10.1769 -3.60512 -3.18517
266 1 -9.36244 10.2559 45.2809 -3.41653
267 1 -7.45048 11.9938 45.4835 -3.31092
268 1 -8.90472 9.40788 -2.76652 -3.48297
269 1 -9.33285 12.0738 -3.52339 -3.15758
270 1 -6.92294 9.67811 46.0537 -3.49747
271 1 -5.14797 11.3865 46.4805 -3.48286
272 1 -4.64655 10.525 -1.76079 -3.49603
273 1 -7.05849 11.211 -2.52054 -3.50318
274 1 -2.75051 10.6892 -3.90445 -3.46191
275 1 -0.966404 12.4428 -3.5393 -3.48703
276 1 -2.11564 10.0577 -1.32118 -3.51171
277 1 -2.79528 12.4755 -1.76878 -3.49338
278 1 -0.430446 10.0712 -3.13761 -3.49013
279 1 1.41797 11.7779 -2.9809 -3.47649
280 1 1.32893 9.83944 -1.3217 -3.47363
281 1 -0.280091 11.7352 -1.10575 -3.5009
282 1 3.09575 10.0904 -3.0566 -3.47022
283 1 5.00765 11.7567 -3.05791 -3.50642
284 1 5.07969 9.83158 -1.39461 -3.47801
285 1 3.15686 11.548 -1.03384 -3.52466
286 1 6.74909 10.0189 -3.11787 -3.48924
287 1 8.55554 11.7975 -3.02777 -3.44497
288 1 8.60255 9.80577 -1.31893 -3.49286
289 1 6.71074 11.6819 -1.06639 -3.46224
290 1 10.2876 9.89752 -3.04945 -3.44542
291 1 12.104 11.4785 -2.85202 -2.88036
292 1 12.1589 9.72243 -0.91597 -3.32455
293 1 10.3509 11.6214 -1.05729 -3.33317
294 1 13.8888 9.73399 -2.92439 -2.66732
295 1 -9.78776 12.6039 44.7551 -2.74855
296 1 -7.40011 13.606 -3.03904 -2.99579
297 1 -5.71909 13.8557 45.8085 -3.22336
298 1 -3.84831 15.4636 46.1952 -2.84555
299 1 -5.12582 12.9822 -2.38001 -3.4015
300 1 -5.57442 15.289 -2.82454 -2.65793
301 1 -3.34076 13.1769 46.5989 -3.46135
302 1 -1.44071 14.7813 46.7358 -3.26169
303 1 -0.94152 14.1718 -1.50365 -3.35524
304 1 -3.28053 14.9384 -2.08325 -3.07558
305 1 0.850961 14.1978 -3.40139 -3.45688
306 1 2.59958 15.9235 -3.1139 -3.0537
307 1 1.41646 13.5761 -0.820602 -3.48455
308 1 0.747533 15.8539 -1.35366 -2.97363
309 1 3.2189 13.6082 -2.86477 -3.497
310 1 5.08944 15.3721 -2.82488 -3.08375
311 1 4.92683 13.3512 -1.00703 -3.48242
312 1 3.299 15.3311 -0.892637 -3.10927
313 1 6.849 13.5798 -2.94476 -3.37617
314 1 8.4024 13.3943 -0.889579 -3.09488
315 1 6.7082 15.0855 -0.806372 -2.73027
316 1 10.3212 13.3418 -2.7719 -2.67358
317 1 0.358935 16.628 -3.74284 -2.69701
318 1 -6.22462 -15.1695 0.186456 -2.81471
319 1 -7.80109 -15.049 2.39727 -2.58176
320 1 -1.835 -14.3398 0.942992 -3.00089
321 1 -3.70087 -14.5383 2.6586 -2.78104
322 1 2.08874 -14.7021 -0.490876 -2.9388
323 1 4.18439 -15.1409 0.351628 -2.53947
324 1 0.47381 -14.8202 1.60101 -2.71461
325 1 4.58926 -13.8942 2.4542 -2.9168
326 1 2.89812 -13.7399 4.28712 -2.7956
327 1 6.97549 -12.7075 5.09162 -2.66671
328 1 -13.3285 -11.3235 0.441532 -2.79121
329 1 -11.4502 -13.1851 0.34083 -2.69806
330 1 -9.71187 -11.596 0.634954 -3.40664
331 1 -9.69842 -13.5329 2.35717 -3.06856
332 1 -11.5979 -11.8758 2.54794 -3.23553
333 1 -7.98383 -13.4183 0.40245 -3.34052
334 1 -6.06145 -11.8613 0.769258 -3.47645
335 1 -5.97977 -13.5925 2.43158 -3.24667
336 1 -7.81197 -11.9582 2.58895 -3.48471
337 1 -4.21686 -13.614 0.525758 -3.31726
338 1 -2.42173 -11.8454 0.714189 -3.49531
339 1 -1.71418 -12.8162 3.08333 -3.3114
340 1 -3.98178 -11.9501 2.61377 -3.46133
341 1 -0.0286585 -12.4721 1.25644 -3.45451
342 1 1.57565 -12.3706 -0.792988 -3.49423
343 1 2.26299 -13.2847 1.64117 -3.36932
344 1 -0.0910244 -10.8112 3.12909 -3.49321
345 1 3.94949 -12.9189 -0.246866 -3.35086
346 1 5.66727 -11.0921 0.0740601 -3.47942
347 1 4.55562 -12.2451 4.53368 -3.23755
348 1 4.07849 -11.524 1.94545 -3.5104
349 1 6.55805 -11.9947 2.46145 -3.19424
350 1 8.25472 -10.2211 2.70478 -3.32326
351 1 8.80074 -10.9897 5.27848 -3.08966
352 1 6.39575 -10.4776 4.65324 -3.42696
353 1 10.4426 -10.7235 3.40656 -2.67868
354 1 12.4018 -9.09529 3.60769 -2.82852
355 1 10.7444 -9.18375 5.51029 -3.2681
356 1 -14.787 -9.4145 0.923856 -2.71814
357 1 -12.8563 -7.9424 1.14751 -3.44828
358 1 -13.0267 -10.008 2.86409 -3.23528
359 1 -14.6923 -8.01214 2.90432 -3.0942
360 1 -11.3314 -9.915 0.977422 -3.39983
361 1 -9.52284 -8.15735 0.915913 -3.52215
362 1 -9.6671 -10.0164 2.62646 -3.47381
363 1 -11.3094 -8.1614 3.07129 -3.47758
364 1 -7.78924 -10.0794 0.886348 -3.52425
365 1 -5.93959 -8.19992 1.04717 -3.50293
366 1 -6.00733 -10.1404 2.79001 -3.50789
367 1 -7.72007 -8.3644 2.83467 -3.48833
368 1 -4.36757 -10.07 0.796346 -3.52017
369 1 -2.47545 -9.79577 -0.950642 -3.50412
370 1 -2.42016 -10.1105 2.58344 -3.4784
371 1 -4.20789 -8.38721 2.87037 -3.48814
372 1 -0.830952 -11.7276 -1.2445 -3.53363
373 1 1.00576 -9.95081 -0.994106 -3.49924
374 1 1.81422 -10.7591 1.32182 -3.51796
375 1 -0.751881 -10.0229 0.826594 -3.48291
376 1 3.48943 -10.5396 -0.692425 -3.43492
377 1 5.37641 -8.56834 -0.49309 -3.47231
378 1 5.77836 -9.61157 2.20593 -3.48738
379 1 3.52683 -8.97263 1.47386 -3.49357
380 1 7.65326 -9.35234 0.178044 -3.45917
381 1 9.4014 -7.75306 0.518541 -3.46253
382 1 8.28538 -8.7381 4.91596 -3.47388
383 1 7.66506 -7.74192 2.36 -3.49717
384 1 9.94218 -8.39723 3.03009 -3.39938
385 1 11.7532 -6.74709 3.14092 -3.44558
386 1 12.5767 -7.49984 5.58717 -3.23607
387 1 10.034 -6.79949 5.00297 -3.52787
388 1 14.1317 -7.24969 3.61793 -2.72085
389 1 14.4973 -5.68202 5.46151 -2.92211
390 1 -16.3442 -4.40095 1.5751 -3.00907
391 1 -16.433 -6.13841 3.19196 -2.65903
392 1 -14.6347 -6.03878 1.44581 -3.33876
393 1 -12.7838 -4.32282 1.54753 -3.475
394 1 -12.8392 -6.33266 3.16435 -3.46115
395 1 -14.5376 -4.47243 3.4527 -3.48924
396 1 -11.0654 -6.12267 1.33768 -3.42076
397 1 -9.28327 -4.61037 1.16234 -3.42826
398 1 -9.22748 -6.5432 3.18405 -3.45069
399 1 -10.9194 -4.79937 3.2724 -3.46782
400 1 -7.63494 -6.33426 1.20581 -3.4791
401 1 -5.86987 -6.1526 -0.742919 -3.50452
402 1 -5.8622 -6.60987 3.06203 -3.5112
403 1 -7.57304 -4.80258 3.16869 -3.48334
404 1 -4.14184 -8.00359 -0.837923 -3.50531
405 1 -2.32285 -6.27431 -0.903381 -3.44257
406 1 -2.38366 -8.09865 0.914057 -3.4963
407 1 -4.18728 -6.4756 1.15833 -3.49179
408 1 -0.553558 -8.05539 -0.917637 -3.50672
409 1 1.12441 -6.26179 -0.755352 -3.51598
410 1 1.01252 -8.16891 1.10412 -3.45344
411 1 -0.562107 -6.41525 1.08644 -3.48856
412 1 2.98018 -8.12975 -1.03626 -3.50245
413 1 4.60959 -6.24136 -0.775676 -3.46083
414 1 5.32217 -7.07085 1.58411 -3.48625
415 1 2.81797 -6.53343 1.08883 -3.52113
416 1 7.15093 -6.97149 -0.17677 -3.45306
417 1 8.79039 -5.12621 0.048851 -3.49985
418 1 9.4654 -6.07151 2.62935 -3.47326
419 1 7.01457 -5.35924 1.93143 -3.45663
420 1 11.1623 -5.94694 0.57139 -3.51646
421 1 12.9922 -4.09606 0.787575 -3.42971
422 1 11.8194 -5.06872 5.13541 -3.51233
423 1 11.224 -4.2433 2.67342 -3.50118
424 1 13.5126 -4.86331 3.22754 -3.33458
425 1 15.6599 -2.92146 3.28654 -2.94552
426 1 15.9443 -3.82784 5.67949 -2.67598
427 1 13.7394 -3.11621 5.12944 -3.47842
428 1 -16.6385 -1.70198 1.86769 -2.9501
429 1 -16.4481 -2.95634 3.76962 -3.00721
430 1 -14.5138 -2.73908 1.659 -3.41711
431 1 -12.673 -1.19978 1.56979 -3.44385
432 1 -12.5651 -2.95437 3.55427 -3.50189
433 1 -14.6019 -1.38678 3.68987 -3.41018
434 1 -10.8443 -2.77842 1.41029 -3.50594
435 1 -9.17813 -2.49695 -0.603248 -3.44234
436 1 -9.16697 -2.94622 3.32816 -3.50045
437 1 -10.8964 -1.15472 3.41762 -3.50756
438 1 -7.55043 -4.29512 -0.73257 -3.5002
439 1 -5.77416 -2.63875 -0.65498 -3.45555
440 1 -5.88215 -4.59947 1.25222 -3.49805
441 1 -7.60012 -2.76282 1.42632 -3.53982
442 1 -3.95857 -4.59624 -0.667764 -3.50852
443 1 -2.29552 -2.64667 -0.65315 -3.47627
444 1 -2.38512 -4.56814 1.28473 -3.50268
445 1 -4.21457 -2.82394 1.33992 -3.48746
446 1 -0.693895 -4.47017 -0.615174 -3.50505
447 1 1.1456 -2.79513 -0.498504 -3.50806
448 1 1.17727 -4.58493 1.3167 -3.49346
449 1 -0.563701 -2.9263 1.38556 -3.48546
450 1 2.9129 -4.47627 -0.495121 -3.48274
451 1 4.78694 -2.62319 -0.340997 -3.47464
452 1 4.80586 -4.56714 1.28906 -3.50885
453 1 2.9486 -2.9021 1.49237 -3.50683
454 1 6.52392 -4.48293 -0.537414 -3.51009
455 1 8.28486 -2.68445 -0.313545 -3.45162
456 1 8.92674 -3.55019 2.04009 -3.49354
457 1 6.61202 -2.86881 1.528 -3.48573
458 1 10.7445 -3.47405 0.228593 -3.49311
459 1 12.5476 -1.75855 0.385327 -3.47638
460 1 13.125 -2.60795 2.6786 -3.41723
461 1 10.7869 -1.81486 2.19614 -3.43399
462 1 14.896 -2.28539 0.884036 -3.33072
463 1 16.6847 -0.632551 1.05046 -2.8095
464 1 15.6827 -1.43637 5.3718 -3.14014
465 1 14.6971 -0.859604 3.03346 -3.31128
466 1 -16.9213 0.636765 1.16925 -2.73075
467 1 -15.4255 2.73269 0.957472 -3.22862
468 1 -16.5576 0.0641646 3.81811 -3.13224
469 1 -14.7641 0.181982 1.90923 -3.39363
470 1 -12.9771 0.582957 -0.0976993 -3.5035
471 1 -12.895 0.299748 3.62769 -3.47499
472 1 -14.7639 1.85743 3.60187 -3.42712
473 1 -10.8932 -0.8256 -0.377666 -3.48188
474 1 -9.19652 0.917592 -0.28044 -3.50774
475 1 -9.29691 -0.892281 1.55277 -3.50055
476 1 -11.1241 0.795808 1.67301 -3.49635
477 1 -7.49954 -0.923019 -0.384786 -3.47593
478 1 -5.77107 0.936919 -0.231086 -3.52064
479 1 -5.8168 -0.86251 1.71295 -3.46445
480 1 -7.40977 0.866159 1.58996 -3.42183
481 1 -4.02822 -0.905464 -0.416594 -3.49542
482 1 -2.19702 0.850511 -0.181965 -3.50725
483 1 -2.31543 -0.997536 1.65346 -3.5157
484 1 -3.97917 0.890094 1.71115 -3.48822
485 1 -0.565711 -0.940912 -0.356157 -3.49875
486 1 1.34696 0.753458 -0.232228 -3.46751
487 1 1.16371 -1.16755 1.52496 -3.5132
488 1 -0.517205 0.621568 1.68905 -3.49675
489 1 3.08328 -0.941244 -0.310789 -3.48324
490 1 4.80805 0.901859 -0.167371 -3.50052
491 1 4.71663 -1.17278 1.57435 -3.49463
492 1 2.92436 0.682159 1.6559 -3.52784
493 1 6.57474 -0.954891 -0.230623 -3.5157
494 1 8.33064 0.742855 0.00740772 -3.48517
495 1 8.31242 -1.28123 1.726 -3.43368
496 1 6.5544 0.647715 1.76934 -3.5392
497 1 10.0537 -1.12167 -0.142948 -3.45603
498 1 11.967 0.537703 -0.0767587 -3.47469
499 1 12.3753 -0.173504 2.53976 -3.43382
500 1 10.0323 0.400422 1.86362 -3.45698
501 1 14.3283 0.0945733 0.575102 -3.4904
502 1 16.1269 1.90951 0.971973 -3.05428
503 1 16.6441 0.778616 3.40683 -2.78387
504 1 14.2988 1.63574 2.64674 -3.48826
505 1 17.3156 2.40955 -3.48217 -2.48636
506 1 -15.7492 3.60714 -1.48489 -2.84249
507 1 -15.3908 4.31679 2.98135 -3.1104
508 1 -13.5526 3.13728 -0.7631 -3.47422
509 1 -11.6032 4.99671 -0.584951 -3.45682
510 1 -13.2967 2.18466 1.67985 -3.39461
511 1 -13.5316 4.54003 1.28135 -3.42131
512 1 -11.1114 2.44909 -0.219948 -3.48794
513 1 -9.42251 4.14992 0.000709368 -3.45749
514 1 -9.29921 2.37251 1.75692 -3.47411
515 1 -11.2551 4.06981 1.9306 -3.51706
516 1 -7.51988 2.74235 -0.311235 -3.4782
517 1 -5.65013 4.5 0.052645 -3.53148
518 1 -5.80622 2.57527 1.78002 -3.47961
519 1 -7.56689 4.24469 1.94353 -3.49589
520 1 -4.01525 2.69513 -0.064903 -3.49625
521 1 -2.18168 4.28772 0.223798 -3.47593
522 1 -2.19187 2.46057 1.93856 -3.47848
523 1 -3.87773 4.26418 2.02243 -3.51924
524 1 -0.47903 2.587 -0.0926562 -3.50227
525 1 1.28694 4.44819 0.168182 -3.54678
526 1 1.17769 2.52443 1.94669 -3.52761
527 1 -0.51125 4.35093 2.048 -3.45979
528 1 3.0616 2.58927 -0.0389217 -3.49518
529 1 4.79056 4.35701 0.113642 -3.52979
530 1 4.7727 2.43729 1.98231 -3.50051
531 1 3.0203 4.29199 2.02762 -3.51528
532 1 6.552 2.47361 -0.00952287 -3.48976
533 1 8.35612 4.25186 0.372492 -3.50081
534 1 8.3653 2.34469 1.97837 -3.5221
535 1 6.53852 4.0494 2.0474 -3.49013
536 1 10.3107 2.34343 0.196792 -3.52455
537 1 11.8794 4.30814 0.392542 -3.50332
538 1 11.9075 2.15436 2.17444 -3.48326
539 1 10.1761 4.13219 2.15326 -3.48334
540 1 13.717 2.57118 0.198231 -3.49545
541 1 15.5337 4.27496 0.445498 -3.08909
542 1 16.0108 3.39716 3.00007 -3.09829
543 1 13.6812 4.08014 2.29916 -3.49482
544 1 -15.7896 5.08025 0.362962 -2.69262
545 1 -14.1444 5.47899 -1.33 -3.18178
546 1 -12.3398 7.35061 -0.862804 -3.31134
547 1 -11.7967 6.46929 1.46493 -3.46579
548 1 -14.2169 7.00538 1.03059 -2.9701
549 1 -9.9165 6.78651 -0.423235 -3.47686
550 1 -7.9974 8.59514 -0.145907 -3.43382
551 1 -9.50914 5.84335 2.06611 -3.49126
552 1 -9.97856 8.21781 1.73386 -3.50524
553 1 -7.60943 6.31857 0.251694 -3.44618
554 1 -5.63924 7.69293 0.331657 -3.45055
555 1 -5.73393 6.04806 2.18966 -3.51257
556 1 -7.60675 7.81715 2.27737 -3.46658
557 1 -3.81251 6.21353 0.338232 -3.47455
558 1 -2.1453 8.13147 0.33745 -3.48635
559 1 -2.06185 6.15431 2.10556 -3.47124
560 1 -3.91602 7.83506 2.28517 -3.5248
561 1 -0.446214 6.22547 0.158281 -3.50385
562 1 1.38913 7.79682 0.519196 -3.48132
563 1 1.25223 5.98862 2.31755 -3.4917
564 1 -0.458812 7.89533 2.35349 -3.48149
565 1 3.19091 6.23736 0.363631 -3.43276
566 1 4.82308 7.95175 0.592074 -3.49355
567 1 4.89133 5.92738 2.11597 -3.49812
568 1 2.97968 7.81788 2.47511 -3.52994
569 1 6.84076 6.20012 0.464885 -3.50115
570 1 8.42198 8.05089 0.636394 -3.4856
571 1 8.44457 5.81159 2.36154 -3.49757
572 1 6.72707 7.79178 2.37733 -3.46012
573 1 10.1119 6.12626 0.411534 -3.5284
574 1 11.998 7.80934 0.762523 -3.43463
575 1 11.9953 5.93185 2.28366 -3.47415
576 1 10.2901 7.74662 2.5743 -3.48519
577 1 13.7764 6.17142 0.540245 -3.35783
578 1 15.3112 5.74398 2.55092 -2.86974
579 1 13.7351 7.61947 2.6028 -3.11427
580 1 -12.5758 9.69592 -1.41803 -2.72909
581 1 -10.8984 11.5369 -1.59758 -2.83826
582 1 -12.3424 8.91812 1.06438 -3.2051
583 1 -10.4025 9.13536 -0.817891 -3.3674
584 1 -8.69618 10.91 -0.593029 -3.40233
585 1 -8.2311 10.1384 1.85475 -3.5151
586 1 -10.7313 10.7283 1.1776 -3.20024
587 1 -6.31576 10.3369 0.0198025 -3.47268
588 1 -4.62646 12.2163 0.258587 -3.4918
589 1 -5.81368 9.53513 2.38209 -3.49761
590 1 -6.43527 11.9285 2.05885 -3.43921
591 1 -3.99277 9.61771 0.454293 -3.46376
592 1 -2.27305 11.5236 0.816156 -3.51121
593 1 -2.0603 9.68979 2.48494 -3.49508
594 1 -4.02811 11.2316 2.60566 -3.48212
595 1 -0.349272 9.81819 0.481407 -3.50097
596 1 1.39943 11.6899 0.832872 -3.45571
597 1 1.23389 9.74903 2.51925 -3.48817
598 1 -0.371431 11.5182 2.72044 -3.52202
599 1 3.10264 9.78366 0.673961 -3.51643
600 1 5.03217 11.5215 0.812452 -3.52442
601 1 4.81594 9.55242 2.56774 -3.48274
602 1 3.13316 11.256 2.64811 -3.46471
603 1 6.57747 9.70356 0.783913 -3.45661
604 1 8.33801 11.4581 0.6954 -3.47025
605 1 8.46728 9.57907 2.66354 -3.52485
606 1 6.7371 11.4577 2.72049 -3.54377
607 1 10.2916 9.75308 0.768875 -3.46428
608 1 11.8268 11.5412 1.02598 -2.8185
609 1 11.8141 9.59856 2.69125 -3.33412
610 1 9.99664 11.5717 2.81127 -3.26489
611 1 13.8044 9.45024 0.995937 -2.71283
612 1 -9.26895 13.2354 -1.24986 -2.68366
613 1 -8.90738 12.6236 1.38741 -3.05734
614 1 -7.02353 12.754 -0.56082 -3.33028
615 1 -5.16225 14.5022 -0.165742 -2.9517
616 1 -4.6614 13.8562 2.16054 -3.25468
617 1 -6.9084 14.173 1.47628 -2.71567
618 1 -2.75685 14.1974 0.419205 -3.32394
619 1 -0.706498 15.6826 0.732731 -2.9014
620 1 -2.50303 13.1232 2.7819 -3.41867
621 1 -2.77989 15.6257 2.59699 -2.84791
622 1 -0.454453 13.3859 0.884204 -3.43244
623 1 1.60772 15.1881 1.07379 -3.16182
624 1 1.46457 13.2258 2.739 -3.53191
625 1 -0.596876 14.6051 3.00059 -3.2621
626 1 3.12839 13.3241 0.89886 -3.39348
627 1 4.89856 14.9264 0.99583 -3.01519
628 1 4.70443 13.2834 2.88344 -3.43012
629 1 3.14364 15.1308 3.04092 -3.08678
630 1 6.76237 13.3976 1.03802 -3.32337
631 1 8.41917 13.2746 2.85443 -3.03851
632 1 6.56198 14.9169 2.92774 -2.72619
633 1 10.0067 13.2136 0.952865 -2.77038
634 1 0.894545 16.3752 3.00508 -2.63594
635 1 -5.50124 -14.3984 4.74111 -2.86552
636 1 -7.3306 -14.6205 6.79467 -2.6497
637 1 -1.49375 -13.6244 5.69693 -3.0103
638 1 -2.91124 -14.0054 7.659 -2.98575
639 1 0.470852 -13.2825 3.57353 -3.1609
640 1 0.99626 -13.8454 6.27667 -2.81839
641 1 -0.572422 -14.3136 8.41219 -2.91198
642 1 5.23158 -12.9029 7.01713 -3.00671
643 1 3.57989 -13.0855 8.87197 -3.12183
644 1 6.07864 -13.5972 9.20739 -2.62963
645 1 -12.8646 -12.0574 4.62196 -2.7918
646 1 -10.9257 -13.8826 4.40109 -2.68894
647 1 -9.44043 -11.8206 4.4114 -3.43323
648 1 -9.57033 -13.8223 6.41226 -2.90708
649 1 -11.2133 -12.278 6.57617 -3.17628
650 1 -7.94768 -13.7879 4.53683 -3.22807
651 1 -6.20334 -11.933 4.52466 -3.49104
652 1 -5.1469 -13.123 6.9001 -3.28682
653 1 -7.63223 -12.2749 6.59257 -3.45317
654 1 -3.62977 -12.8489 4.98699 -3.26076
655 1 -1.7865 -11.1945 5.03201 -3.41584
656 1 -1.34403 -11.9258 7.80643 -3.48048
657 1 -3.51417 -11.3047 7.1487 -3.39539
658 1 0.334718 -11.6 5.78059 -3.3985
659 1 2.19931 -11.4899 3.7672 -3.47719
660 1 1.11298 -12.4366 8.31563 -3.32066
661 1 0.777521 -10.1736 7.7961 -3.43165
662 1 2.79778 -12.2733 6.40322 -3.33921
663 1 4.69337 -10.5914 6.44153 -3.50526
664 1 5.30375 -11.3382 9.01141 -3.38379
665 1 3.02915 -10.7071 8.41501 -3.45705
666 1 7.04691 -10.9662 7.19965 -3.39081
667 1 8.96402 -9.14349 7.19125 -3.37849
668 1 7.80077 -11.8719 9.50629 -3.11999
669 1 7.30509 -9.5257 9.15568 -3.48031
670 1 9.55604 -11.4478 7.74036 -2.75421
671 1 11.3904 -10.0252 7.78088 -2.84117
672 1 9.84882 -10.1184 9.73588 -3.30641
673 1 -14.4889 -10.1169 4.61725 -2.65519
674 1 -12.845 -8.16547 4.9563 -3.4467
675 1 -12.9295 -10.3709 6.82767 -3.27162
676 1 -14.586 -8.6347 6.93484 -3.06821
677 1 -11.3584 -10.2317 4.75039 -3.48836
678 1 -9.48986 -8.37474 4.94382 -3.42604
679 1 -9.61068 -10.5939 6.67759 -3.45426
680 1 -11.0557 -8.67572 6.8282 -3.48725
681 1 -7.84759 -10.0832 4.67267 -3.42323
682 1 -5.77876 -8.607 4.73274 -3.4847
683 1 -5.67921 -10.5772 6.5932 -3.42046
684 1 -7.41306 -8.90217 6.95773 -3.41653
685 1 -4.13121 -10.4244 4.55867 -3.49058
686 1 -2.26512 -8.46656 4.78994 -3.42154
687 1 -1.55271 -9.54748 6.97125 -3.48572
688 1 -3.89806 -8.86236 6.64983 -3.50036
689 1 -0.112797 -9.36156 5.08979 -3.38801
690 1 1.78732 -9.09265 3.32703 -3.47819
691 1 2.25312 -9.98826 5.79613 -3.48345
692 1 0.209347 -7.85397 7.21826 -3.51533
693 1 4.09587 -9.87382 3.97033 -3.49714
694 1 5.97192 -8.04271 4.18711 -3.50219
695 1 4.93305 -8.98563 8.69942 -3.45794
696 1 4.09817 -8.21276 5.8471 -3.47321
697 1 6.45589 -8.71867 6.66695 -3.45603
698 1 8.40425 -6.91858 6.99429 -3.4511
699 1 9.21592 -7.70943 9.14379 -3.47073
700 1 6.80857 -7.20537 8.76523 -3.51251
701 1 10.8457 -7.54546 7.36746 -3.43109
702 1 12.7709 -5.74421 7.43292 -3.35322
703 1 11.5148 -8.3212 9.92706 -3.27561
704 1 10.9461 -5.90802 9.31729 -3.52011
705 1 13.0883 -8.09088 8.13434 -2.78058
706 1 13.5759 -6.42826 9.90501 -3.10258
707 1 -16.1251 -4.63823 5.52228 -2.98873
708 1 -16.1795 -6.69191 7.18893 -2.72795
709 1 -14.631 -6.57672 5.26614 -3.3049
710 1 -12.8404 -4.95249 5.29323 -3.5072
711 1 -12.8036 -6.85711 7.08814 -3.51484
712 1 -14.3824 -4.94772 7.28792 -3.45331
713 1 -11.023 -6.49063 5.24701 -3.46618
714 1 -9.12771 -4.84643 5.14672 -3.4931
715 1 -9.17142 -6.93536 6.92311 -3.51424
716 1 -10.9331 -5.00649 7.19593 -3.53047
717 1 -7.56729 -6.83651 4.99661 -3.49118
718 1 -5.84155 -5.05075 5.06667 -3.51674
719 1 -5.78185 -7.00658 6.80867 -3.51065
720 1 -7.6137 -4.96547 7.10765 -3.45547
721 1 -4.0912 -6.80705 4.77281 -3.48232
722 1 -2.43995 -6.44443 2.87062 -3.48139
723 1 -2.21652 -6.97823 6.79707 -3.48175
724 1 -4.02863 -5.28861 6.91082 -3.47775
725 1 -0.785539 -8.20456 2.77345 -3.47686
726 1 1.14169 -6.61532 3.04119 -3.48887
727 1 1.80666 -7.71356 5.29257 -3.44914
728 1 -0.631169 -6.77209 4.99259 -3.46378
729 1 3.59986 -7.4386 3.33265 -3.49096
730 1 5.3483 -5.5816 3.61118 -3.47806
731 1 5.8997 -6.52579 6.33858 -3.4193
732 1 3.53501 -5.76778 5.66298 -3.49227
733 1 7.6461 -6.23546 4.52777 -3.50221
734 1 9.46549 -4.45434 4.53082 -3.48225
735 1 8.61399 -5.29404 8.90031 -3.4821
736 1 7.73286 -4.5423 6.27924 -3.47302
737 1 10.3194 -5.10899 7.02209 -3.51341
738 1 12.0553 -3.17063 7.07171 -3.48628
739 1 12.7809 -4.14091 9.42587 -3.46876