ITEM: TIMESTEP
180000
ITEM: NUMBER OF ATOMS
3804
ITEM: BOX BOUNDS ss ss pp
-1.7570858089990146e+01 1.7994874293392286e+01
-1.7615750976582373e+01 1.6688959345219605e+01
-3.9042000000000003e+00 4.7284200000000006e+01
ITEM: ATOMS id type x y z c_peratom
1 1 -5.63197 -14.7967 -3.43573 -3.00011
2 1 -7.15973 -15.1966 -1.4708 -2.71587
3 1 -2.33571 -15.0081 -3.39015 -2.97841
4 1 -4.03862 -15.0767 -1.44989 -2.92807
5 1 0.0463061 -15.2273 -2.93776 -2.73769
6 1 1.67787 -15.1601 46.2512 -2.89746
7 1 0.00757119 -14.1243 -0.765906 -3.13919
8 1 5.91758 -14.2929 46.6326 -2.84466
9 1 4.30062 -14.3859 -2.76186 -2.95213
10 1 6.91913 -13.2891 0.18468 -2.8033
11 1 -12.625 -11.3602 -2.86433 -2.8728
12 1 -10.6741 -13.1165 -3.07939 -2.73497
13 1 -8.95232 -11.3395 -2.98747 -3.42303
14 1 -8.85843 -13.3353 -1.1416 -3.11339
15 1 -10.8789 -11.6903 -1.07033 -3.26399
16 1 -7.4497 -13.2122 -3.23747 -3.35103
17 1 -5.82624 -11.208 -3.19381 -3.49151
18 1 -5.73825 -13.226 -1.32726 -3.44063
19 1 -7.25165 -11.4804 -1.15507 -3.42608
20 1 -3.9228 -13.2232 -3.25715 -3.3633
21 1 -2.52273 -12.9503 46.0538 -3.40483
22 1 -2.26543 -13.3241 -1.37869 -3.35043
23 1 -3.87408 -11.6223 -1.38862 -3.43936
24 1 -0.814077 -14.7697 45.8428 -3.22494
25 1 1.19114 -12.8147 46.039 -3.41493
26 1 1.90082 -13.7645 -2.91532 -3.28805
27 1 -0.567401 -13.0102 -3.56433 -3.39406
28 1 3.59392 -13.7017 46.2717 -3.29339
29 1 5.33547 -11.8596 46.5177 -3.50595
30 1 6.09396 -12.7686 -2.43191 -3.25976
31 1 3.59848 -12.0842 -2.80189 -3.47072
32 1 7.80619 -12.4863 47.0293 -3.12079
33 1 9.54861 -10.7433 47.3124 -3.22649
34 1 8.60813 -11.4924 0.547365 -2.97558
35 1 7.86925 -10.865 -1.97817 -3.38977
36 1 10.3996 -11.3942 -1.57623 -2.67888
37 1 12.1786 -9.61045 -1.48172 -2.81368
38 1 10.5229 -9.99306 0.640628 -3.16146
39 1 -14.3304 -9.54065 -2.79703 -2.86357
40 1 -12.6282 -7.88689 -2.72695 -3.4194
41 1 -12.5447 -9.79699 -0.901848 -3.33232
42 1 -14.3452 -7.92177 -0.879497 -3.21333
43 1 -10.9871 -9.55232 -2.85803 -3.45994
44 1 -9.1432 -7.81892 -2.64438 -3.47633
45 1 -9.30019 -9.86392 -1.01458 -3.50335
46 1 -10.8406 -7.93137 -0.801646 -3.51601
47 1 -7.47957 -9.57214 -2.86445 -3.41141
48 1 -5.78515 -9.30267 46.3222 -3.50278
49 1 -5.46356 -9.73002 -1.05781 -3.47776
50 1 -7.45769 -7.91814 -0.953805 -3.50789
51 1 -4.07834 -11.2046 46.1914 -3.47881
52 1 -2.29802 -9.43702 46.0209 -3.49414
53 1 -2.2431 -11.2967 -3.15719 -3.47367
54 1 -3.88453 -9.43778 -3.01733 -3.50648
55 1 -0.590422 -11.119 46.1039 -3.46536
56 1 1.25013 -9.53035 46.1811 -3.47023
57 1 1.24767 -11.3426 -3.00258 -3.46332
58 1 -0.499022 -9.57226 -3.05892 -3.48124
59 1 2.92159 -11.2404 46.0177 -3.467
60 1 4.7385 -9.45972 46.2026 -3.52172
61 1 5.46111 -10.2561 -2.46736 -3.5187
62 1 2.9515 -9.67306 -3.05229 -3.50786
63 1 7.12526 -10.1172 46.7505 -3.50254
64 1 9.02038 -8.36917 46.8952 -3.46731
65 1 9.65787 -9.05192 -1.89891 -3.44528
66 1 7.20157 -8.47342 -2.45943 -3.50922
67 1 11.3247 -9.13381 47.5573 -3.22236
68 1 13.091 -7.18717 47.5882 -3.23597
69 1 12.3181 -8.14574 0.90664 -3.1993
70 1 11.4056 -7.25245 -1.65286 -3.47108
71 1 13.855 -7.71409 -1.35757 -2.70188
72 1 13.9558 -6.30234 0.608928 -3.08587
73 1 -16.2706 -4.72599 -2.05682 -2.69177
74 1 -16.0372 -6.28971 -0.287021 -2.8177
75 1 -14.2819 -5.89917 -2.35981 -3.29521
76 1 -12.6158 -4.16787 -2.29 -3.42793
77 1 -12.5598 -6.14189 -0.566206 -3.51258
78 1 -14.3774 -4.37932 -0.3204 -3.41962
79 1 -10.9522 -5.90589 -2.55683 -3.50848
80 1 -9.3378 -5.9187 46.6654 -3.48046
81 1 -9.19426 -6.10851 -0.712063 -3.50305
82 1 -10.8496 -4.27463 -0.448982 -3.50905
83 1 -7.64277 -7.70813 46.4511 -3.44832
84 1 -5.74881 -5.82394 46.5433 -3.49832
85 1 -5.67847 -7.71136 -2.7738 -3.49352
86 1 -7.40544 -6.06767 -2.77475 -3.49365
87 1 -3.98485 -7.61123 46.4684 -3.47146
88 1 -2.08741 -5.9489 46.3998 -3.51375
89 1 -2.14369 -7.75463 -2.8773 -3.41305
90 1 -3.74329 -6.16144 -2.8004 -3.38761
91 1 -0.434517 -7.80849 46.3551 -3.50769
92 1 1.29751 -5.96972 46.4459 -3.52623
93 1 1.19219 -7.90823 -2.94248 -3.48304
94 1 -0.454216 -6.03898 -2.79188 -3.47506
95 1 2.90771 -7.78093 46.309 -3.47247
96 1 4.7036 -5.94432 46.4029 -3.52764
97 1 4.84531 -7.84667 -2.96502 -3.52142
98 1 3.06099 -5.97513 -2.85483 -3.50546
99 1 6.64517 -7.63266 46.2821 -3.52791
100 1 8.31408 -5.80362 46.3481 -3.49712
101 1 9.08674 -6.6139 -2.31147 -3.47145
102 1 6.5598 -6.00834 -2.98596 -3.51315
103 1 10.7212 -6.68643 46.9895 -3.50992
104 1 12.5421 -4.89143 47.0329 -3.47345
105 1 13.3272 -5.41847 -1.72819 -3.32781
106 1 10.8082 -4.77597 -2.23687 -3.48471
107 1 15.2469 -5.26778 -3.46832 -3.0692
108 1 16.9517 -3.55046 -3.52087 -2.76124
109 1 15.6124 -4.65899 1.20416 -2.71421
110 1 15.3076 -3.98054 -1.43294 -3.12667
111 1 -15.2027 -0.128333 -2.94881 -3.05996
112 1 -16.0909 -2.79652 -0.307613 -2.84809
113 1 -14.6379 -2.67564 -2.39132 -3.33503
114 1 -12.9381 -2.51896 46.9223 -3.5072
115 1 -12.7037 -2.56682 -0.442562 -3.51056
116 1 -14.5601 -0.96532 -0.173488 -3.30141
117 1 -10.9696 -4.11291 46.8836 -3.48125
118 1 -9.21856 -2.36858 46.882 -3.45802
119 1 -9.28049 -4.15658 -2.49741 -3.49992
120 1 -11.0487 -2.40714 -2.38056 -3.44991
121 1 -7.62325 -4.19702 46.6703 -3.50366
122 1 -5.83054 -2.27868 46.7919 -3.49429
123 1 -5.68762 -4.1152 -2.6573 -3.50374
124 1 -7.49504 -2.46971 -2.55017 -3.47963
125 1 -3.95563 -4.18813 46.5277 -3.51789
126 1 -2.1147 -2.33496 46.7984 -3.4929
127 1 -2.14893 -4.3623 -2.67654 -3.50035
128 1 -3.81007 -2.53183 -2.50647 -3.48756
129 1 -0.452647 -4.08214 46.5102 -3.50433
130 1 1.18109 -2.19219 46.7755 -3.48166
131 1 1.15542 -4.15186 -2.66287 -3.46727
132 1 -0.367378 -2.39126 -2.56589 -3.46281
133 1 3.00326 -4.00169 46.7325 -3.50426
134 1 4.71194 -2.27556 46.8075 -3.44097
135 1 4.81863 -4.16102 -2.61831 -3.48746
136 1 3.05101 -2.32956 -2.50716 -3.52467
137 1 6.44621 -4.11465 46.6509 -3.50985
138 1 8.34681 -2.47093 46.8616 -3.52325
139 1 8.38902 -4.35279 -2.60632 -3.47137
140 1 6.66811 -2.56789 -2.39428 -3.49547
141 1 10.1546 -4.11121 46.6252 -3.48418
142 1 11.9454 -2.47548 46.7859 -3.51382
143 1 12.6651 -3.14736 -2.04305 -3.46613
144 1 10.2431 -2.48612 -2.45753 -3.45887
145 1 14.5037 -2.91065 -3.81611 -3.45323
146 1 16.1012 -1.24749 -3.51692 -3.083
147 1 16.7032 -1.97872 -1.31824 -2.81032
148 1 14.3069 -1.32954 -1.71755 -3.47673
149 1 -16.8424 1.63247 40.3901 -2.70636
150 1 -15.6039 0.508616 45.6557 -2.94599
151 1 -14.9972 1.33351 -0.772787 -3.18086
152 1 -13.3774 -0.113238 46.2957 -3.44984
153 1 -11.5263 1.73565 46.6623 -3.49652
154 1 -12.7741 -0.840466 -2.19324 -3.44915
155 1 -13.2756 1.43344 -2.73887 -3.42214
156 1 -11.0686 -0.67159 46.9685 -3.51905
157 1 -9.21177 1.10391 47.0756 -3.48485
158 1 -9.17583 -0.723033 -2.25928 -3.51412
159 1 -11.0448 0.98082 -2.08835 -3.47959
160 1 -7.58848 -0.661517 46.8118 -3.40981
161 1 -5.71319 1.03894 47.0127 -3.50813
162 1 -5.5167 -0.737733 -2.30316 -3.49452
163 1 -7.39608 1.00583 -2.28455 -3.52289
164 1 -3.98782 -0.613782 46.8906 -3.51023
165 1 -2.10721 1.2621 46.9913 -3.48501
166 1 -2.08316 -0.632414 -2.4484 -3.50569
167 1 -3.76976 1.10085 -2.32511 -3.49094
168 1 -0.544463 -0.540708 46.7471 -3.42752
169 1 1.2304 1.32186 46.8463 -3.48497
170 1 1.2825 -0.466959 -2.49023 -3.50433
171 1 -0.403145 1.18911 -2.23047 -3.47456
172 1 3.15081 -0.441409 46.8985 -3.53156
173 1 4.91904 1.38557 46.8543 -3.47043
174 1 4.96348 -0.646262 -2.39253 -3.44103
175 1 3.16707 1.18634 -2.22051 -3.49613
176 1 6.52903 -0.694191 46.8834 -3.5099
177 1 8.46165 1.03745 47.1527 -3.44445
178 1 8.49095 -0.796678 -2.3813 -3.51067
179 1 6.59537 0.935738 -2.334 -3.44133
180 1 10.073 -0.637689 46.7765 -3.47042
181 1 11.8883 1.26509 47.0732 -3.48191
182 1 11.8338 -0.633464 -2.26199 -3.50593
183 1 10.1937 1.17052 -2.22288 -3.46444
184 1 13.7153 -0.544326 47.025 -3.52603
185 1 15.6059 1.32902 -3.9115 -3.28111
186 1 16.3096 0.509432 -1.57742 -3.10044
187 1 13.7157 1.0964 -2.20662 -3.51847
188 1 17.2787 1.34797 45.2903 -2.62167
189 1 -14.7293 4.54228 45.7237 -3.02557
190 1 -15.6553 2.2347 -3.47923 -2.83365
191 1 -13.9691 2.25969 45.8639 -3.29552
192 1 -12.2696 4.06249 46.2058 -3.47594
193 1 -11.6835 3.32419 -2.53289 -3.46614
194 1 -13.9232 3.87851 -3.04263 -3.28475
195 1 -9.74475 3.55839 46.7391 -3.50024
196 1 -8.04768 5.28434 46.9491 -3.46025
197 1 -9.21872 2.6974 -2.05277 -3.48243
198 1 -9.91462 5.17292 -2.48182 -3.52527
199 1 -7.44681 2.81988 47.1353 -3.49587
200 1 -5.66288 4.56793 47.2272 -3.50465
201 1 -5.61436 2.88515 -2.15369 -3.52602
202 1 -7.56733 4.49231 -2.02101 -3.48196
203 1 -3.8579 2.90059 47.1989 -3.48935
204 1 -2.19272 4.81834 47.1031 -3.48551
205 1 -2.01088 2.9662 -2.09977 -3.48122
206 1 -3.84483 4.77757 -2.08543 -3.44698
207 1 -0.467481 3.10389 47.0414 -3.48612
208 1 1.25324 4.90665 47.159 -3.47663
209 1 1.44354 2.97297 -2.07787 -3.50359
210 1 -0.381796 4.67669 -1.91517 -3.4604
211 1 3.07207 2.93272 46.9546 -3.46691
212 1 4.93884 4.63573 47.1082 -3.48593
213 1 5.08507 2.79801 -2.09199 -3.45971
214 1 3.24687 4.62854 -1.9931 -3.48881
215 1 6.69618 2.92183 47.101 -3.47839
216 1 8.4638 4.82378 47.1071 -3.48432
217 1 8.34874 2.78851 -2.27547 -3.49643
218 1 6.66124 4.55127 -2.00167 -3.47555
219 1 10.1764 2.84229 47.1428 -3.45571
220 1 12.021 4.67203 -3.88936 -3.54453
221 1 11.9533 2.82648 -2.00894 -3.45253
222 1 10.196 4.4468 -2.15544 -3.49104
223 1 13.8377 2.90162 47.2079 -3.48447
224 1 15.3808 4.83758 -3.87425 -3.12584
225 1 15.4813 3.00198 -1.93984 -3.22339
226 1 13.6621 4.63609 -1.97156 -3.4566
227 1 -14.6612 6.08759 47.546 -2.84386
228 1 -12.8007 6.37892 45.6634 -3.37536
229 1 -11.1329 8.15364 45.692 -3.43278
230 1 -12.2844 5.71096 -3.13815 -3.43503
231 1 -12.9045 8.17307 -3.55997 -3.14437
232 1 -10.5204 5.8392 46.2351 -3.44807
233 1 -8.68826 7.69323 46.4566 -3.53245
234 1 -8.02934 6.97338 -2.30609 -3.49029
235 1 -10.5161 7.55294 -2.98611 -3.51582
236 1 -6.28474 7.01441 46.8724 -3.50265
237 1 -4.55906 8.90691 46.7651 -3.50281
238 1 -5.65876 6.30226 -1.99996 -3.49839
239 1 -6.24763 8.70412 -2.49931 -3.4709
240 1 -3.79336 6.61049 -3.97461 -3.49448
241 1 -2.15387 8.45315 -3.6434 -3.48874
242 1 -2.15432 6.33793 -2.03581 -3.45208
243 1 -3.96277 8.12603 -1.8532 -3.52267
244 1 -0.41951 6.61768 -3.89036 -3.45997
245 1 1.53397 8.21331 -3.76839 -3.50441
246 1 1.46653 6.30109 -1.82634 -3.47568
247 1 -0.361896 8.07979 -1.91582 -3.5222
248 1 3.13029 6.46693 -3.74882 -3.43992
249 1 4.8922 8.19854 47.4136 -3.4897
250 1 5.03766 6.45478 -1.98323 -3.47967
251 1 3.07142 8.13659 -1.72051 -3.50135
252 1 6.63908 6.45071 47.2942 -3.49974
253 1 8.5074 8.10611 -3.59907 -3.49194
254 1 8.53615 6.24184 -1.93342 -3.53063
255 1 6.78881 8.10195 -1.75437 -3.48037
256 1 10.2079 6.44209 47.3826 -3.45512
257 1 11.8601 8.31069 47.3549 -3.44408
258 1 11.8091 6.36928 -1.96633 -3.49861
259 1 10.2592 8.19293 -1.79813 -3.50322
260 1 13.6099 6.69578 -3.79926 -3.35114
261 1 15.2856 6.47625 -1.9525 -2.72714
262 1 13.5758 8.17337 -1.82048 -3.12994
263 1 -13.3671 8.91736 45.1233 -2.81254
264 1 -11.7309 10.5784 45.3497 -2.85701
265 1 -11.0871 10.0997 -3.3513 -3.23792
266 1 -9.30378 10.1853 46.0852 -3.40555
267 1 -7.48245 11.9958 46.008 -3.31146
268 1 -8.70084 9.44473 -2.80766 -3.50047
269 1 -9.25998 11.8942 -3.25059 -3.22777
270 1 -6.98709 9.61009 46.413 -3.49849
271 1 -5.12113 11.3988 46.356 -3.51757
272 1 -4.51575 10.5256 -2.29184 -3.48012
273 1 -6.80801 11.1586 -2.81948 -3.50702
274 1 -2.67317 10.8522 46.9758 -3.52307
275 1 -0.743473 12.5268 46.944 -3.52421
276 1 -2.09322 9.96375 -1.78439 -3.46449
277 1 -2.54193 12.4067 -2.09814 -3.49001
278 1 -0.239772 10.0991 -3.75559 -3.51956
279 1 1.6016 11.9249 -3.63059 -3.46438
280 1 1.37616 9.99183 -1.7413 -3.48936
281 1 -0.293333 11.6845 -1.8209 -3.44559
282 1 3.26665 10.1435 -3.64878 -3.45242
283 1 5.02329 11.7697 -3.60924 -3.51011
284 1 4.92789 9.90116 -1.90963 -3.49158
285 1 3.21498 11.6626 -1.65027 -3.44032
286 1 6.81129 9.89444 -3.59714 -3.51176
287 1 8.44365 11.7822 -3.62984 -3.41551
288 1 8.48381 9.91859 -1.72659 -3.4938
289 1 6.81604 11.8445 -1.66051 -3.48713
290 1 10.1822 10.0386 -3.54368 -3.47671
291 1 11.9942 11.693 -3.74419 -2.85771
292 1 11.9733 9.96327 -1.66415 -3.29887
293 1 10.3032 11.7238 -1.67723 -3.30203
294 1 13.7448 9.8467 -3.70025 -2.72135
295 1 -9.81572 12.487 45.6023 -2.75798
296 1 -7.63653 13.6845 -3.40594 -2.93747
297 1 -5.85436 13.7399 45.8788 -3.17848
298 1 -3.99025 15.541 46.164 -2.79871
299 1 -5.00601 12.8477 -2.67108 -3.40554
300 1 -5.61834 15.1783 -2.96269 -2.70139
301 1 -3.22511 13.1798 46.6722 -3.48979
302 1 -1.55335 15.001 46.6969 -3.18927
303 1 -0.784258 14.1096 -2.26778 -3.36002
304 1 -3.13054 14.8493 -2.54523 -3.08645
305 1 0.988641 14.2697 -4.07962 -3.44277
306 1 2.77778 16.0837 47.1445 -3.0838
307 1 1.53932 13.3019 -1.64349 -3.45925
308 1 1.07148 15.7899 -2.0903 -2.97673
309 1 3.36308 13.5809 -3.54026 -3.51073
310 1 5.10658 15.3286 -3.46281 -3.06959
311 1 4.92705 13.3521 -1.55951 -3.35991
312 1 3.48101 15.2026 -1.66074 -3.127
313 1 6.89604 13.5626 -3.59299 -3.27688
314 1 8.58276 13.4351 -1.57888 -3.09304
315 1 6.5699 15.1404 -1.60663 -2.7781
316 1 10.3106 13.3787 -3.47914 -2.73679
317 1 0.25729 16.4902 46.7191 -2.7056
318 1 -5.59114 -15.339 0.420478 -2.78355
319 1 -7.12442 -15.3801 2.58148 -2.49451
320 1 -1.62006 -14.1426 0.976747 -2.99638
321 1 -3.28774 -14.215 2.95189 -2.90065
322 1 2.64365 -14.7003 -0.58821 -2.96976
323 1 5.20038 -14.9372 -0.427291 -2.5445
324 1 0.964655 -14.6521 1.45237 -2.70465
325 1 4.98829 -13.6278 1.67047 -2.95747
326 1 3.44989 -13.7573 3.92124 -2.82682
327 1 7.43864 -12.5042 4.74648 -2.70103
328 1 -12.582 -11.6564 0.602427 -2.75718
329 1 -10.4722 -13.5197 0.687236 -2.71709
330 1 -8.99604 -11.7342 0.735679 -3.42799
331 1 -9.10851 -13.6176 2.76998 -3.09349
332 1 -10.7418 -11.843 2.73405 -3.2989
333 1 -7.46261 -13.6645 0.687479 -3.33193
334 1 -5.71537 -11.7469 0.790719 -3.50831
335 1 -5.59137 -13.5607 2.55224 -3.33288
336 1 -7.50607 -11.8494 2.76565 -3.44148
337 1 -3.99505 -13.52 0.59893 -3.33879
338 1 -2.21687 -11.7758 0.643944 -3.51843
339 1 -1.48541 -12.4845 3.07736 -3.37722
340 1 -3.87067 -11.7484 2.72578 -3.47491
341 1 0.193641 -12.3843 1.22845 -3.44579
342 1 1.88117 -12.25 -0.728939 -3.51393
343 1 2.72906 -13.0204 1.55067 -3.31314
344 1 0.35886 -10.8351 3.38071 -3.40877
345 1 4.3092 -12.7796 -0.479544 -3.37437
346 1 6.06473 -11.0412 -0.083929 -3.47012
347 1 5.18472 -12.0631 4.0769 -3.24
348 1 4.38468 -11.1653 1.70119 -3.47037
349 1 6.6957 -11.8027 2.26283 -3.22433
350 1 8.71238 -10.0156 2.52991 -3.31825
351 1 9.5078 -10.7587 5.07832 -3.08984
352 1 7.13575 -10.181 4.35054 -3.40031
353 1 10.9824 -10.4539 3.04594 -2.73015
354 1 12.8918 -8.69764 3.29012 -2.82087
355 1 11.1145 -8.97986 5.22253 -3.29244
356 1 -14.1261 -9.59153 1.03645 -2.73226
357 1 -12.5191 -7.98908 1.17104 -3.39598
358 1 -12.4885 -10.1155 2.9505 -3.298
359 1 -14.1166 -8.15668 3.15198 -3.13481
360 1 -10.7703 -9.85075 1.068 -3.51465
361 1 -9.0706 -8.1125 1.11574 -3.51118
362 1 -8.99818 -9.99256 2.93915 -3.48967
363 1 -10.7664 -8.19238 3.00621 -3.52321
364 1 -7.26794 -9.82592 0.826607 -3.50133
365 1 -5.61376 -8.09744 1.13395 -3.45345
366 1 -5.76133 -10.1838 2.88315 -3.51871
367 1 -7.28227 -8.23099 2.98184 -3.48362
368 1 -3.97842 -9.97714 0.978005 -3.50442
369 1 -2.27791 -9.68953 -1.02395 -3.51475
370 1 -1.97923 -10.0619 2.69182 -3.50127
371 1 -3.83155 -8.4433 2.8645 -3.50995
372 1 -0.432236 -11.61 -1.16077 -3.50718
373 1 1.21707 -9.77703 -1.10885 -3.44398
374 1 1.82124 -10.633 1.4139 -3.47722
375 1 -0.348378 -9.90764 0.749036 -3.45859
376 1 3.62804 -10.4306 -0.662717 -3.50929
377 1 5.41731 -8.59864 -0.530891 -3.46523
378 1 6.3034 -9.34457 1.90945 -3.50894
379 1 3.77332 -8.85909 1.32706 -3.50409
380 1 8.06861 -9.20616 -0.0198564 -3.45415
381 1 9.80736 -7.53808 0.341364 -3.49123
382 1 8.77718 -8.43656 4.66328 -3.48586
383 1 8.06445 -7.62065 2.18985 -3.47981
384 1 10.3392 -8.15778 2.8031 -3.42601
385 1 12.1473 -6.35206 2.58892 -3.4925
386 1 12.8258 -7.15168 5.0669 -3.19365
387 1 10.5057 -6.57418 4.71946 -3.50338
388 1 14.5025 -6.84167 3.15894 -2.75063
389 1 14.7589 -5.37291 5.2516 -2.98373
390 1 -16.1081 -4.44794 1.60847 -3.05758
391 1 -15.9653 -6.42238 3.14936 -2.70595
392 1 -14.4008 -6.29978 1.49506 -3.26708
393 1 -12.6564 -4.59777 1.33575 -3.50496
394 1 -12.5027 -6.43141 3.10912 -3.47905
395 1 -14.2652 -4.58739 3.37187 -3.44469
396 1 -10.75 -6.29252 1.25324 -3.5206
397 1 -8.95591 -4.39597 1.3478 -3.4946
398 1 -8.99714 -6.46483 3.09109 -3.52712
399 1 -10.7772 -4.66669 3.27803 -3.50727
400 1 -7.37135 -6.17629 1.01003 -3.49317
401 1 -5.64338 -6.13351 -0.802105 -3.49671
402 1 -5.55312 -6.52007 2.99202 -3.47231
403 1 -7.20347 -4.73929 3.39866 -3.47841
404 1 -3.90254 -8.03794 -0.841047 -3.4063
405 1 -2.30206 -6.18137 -0.815491 -3.52468
406 1 -2.16691 -8.10604 1.02348 -3.51483
407 1 -3.90899 -6.40854 1.14308 -3.48111
408 1 -0.321786 -8.02009 -0.958924 -3.46109
409 1 1.19825 -6.13134 -0.949055 -3.42638
410 1 1.26924 -8.09233 0.942191 -3.49479
411 1 -0.43582 -6.30062 1.08395 -3.47358
412 1 3.12212 -7.99649 -0.965443 -3.50071
413 1 4.94285 -6.23786 -0.906769 -3.47269
414 1 5.6837 -7.06121 1.48496 -3.50313
415 1 3.21018 -6.3805 1.01094 -3.46929
416 1 7.2855 -6.96947 -0.48609 -3.46932
417 1 9.04302 -5.27243 -0.234207 -3.49593
418 1 9.69306 -5.76473 2.29202 -3.47912
419 1 7.34993 -5.22246 1.68891 -3.49061
420 1 11.5011 -5.64579 0.18835 -3.47305
421 1 13.2606 -3.92418 0.529831 -3.48169
422 1 12.1792 -4.77023 4.81821 -3.48857
423 1 11.4931 -3.92032 2.39652 -3.48306
424 1 13.9786 -4.60644 2.98956 -3.25917
425 1 15.6972 -2.98228 2.9175 -2.96742
426 1 16.3507 -3.53755 5.39673 -2.66725
427 1 14.0116 -3.05425 5.0634 -3.47568
428 1 -16.2274 -1.27759 1.83177 -2.97577
429 1 -16.1219 -2.85345 3.56081 -3.02887
430 1 -14.1911 -2.64618 1.64578 -3.44012
431 1 -12.498 -1.09378 1.72061 -3.38222
432 1 -12.5883 -3.01302 3.45813 -3.44507
433 1 -14.2539 -1.18791 3.61471 -3.45274
434 1 -10.8341 -2.73105 1.51946 -3.49253
435 1 -9.2152 -2.52063 -0.584562 -3.4781
436 1 -9.05441 -3.04521 3.43539 -3.48338
437 1 -10.8396 -1.27459 3.53244 -3.52725
438 1 -7.37111 -4.36289 -0.68209 -3.51673
439 1 -5.68912 -2.51211 -0.537413 -3.49922
440 1 -5.51897 -4.46264 1.37804 -3.50162
441 1 -7.19202 -2.71402 1.44507 -3.41713
442 1 -3.98281 -4.38611 -0.833151 -3.48333
443 1 -2.08016 -2.66152 -0.66739 -3.51014
444 1 -2.22649 -4.46127 1.18726 -3.51492
445 1 -3.84583 -2.70576 1.3872 -3.48764
446 1 -0.397328 -4.4166 -0.759682 -3.47801
447 1 1.40028 -2.4782 -0.644408 -3.52192
448 1 1.42708 -4.67052 1.00691 -3.48818
449 1 -0.453989 -2.7815 1.26701 -3.46456
450 1 2.98577 -4.40399 -0.95023 -3.4903
451 1 4.79959 -2.61574 -0.573077 -3.52785
452 1 4.80737 -4.67785 1.1185 -3.47195
453 1 3.16958 -2.82435 1.33265 -3.49065
454 1 6.54942 -4.47608 -0.789629 -3.49618
455 1 8.46964 -2.84959 -0.668593 -3.48587
456 1 9.18239 -3.45572 1.91771 -3.48345
457 1 6.71364 -2.93701 1.29457 -3.51107
458 1 10.8487 -3.34154 -0.101002 -3.48751
459 1 12.4567 -1.46045 0.121773 -3.50691
460 1 13.2846 -2.2873 2.49945 -3.48428
461 1 10.8558 -1.45314 2.09286 -3.47826
462 1 14.9448 -2.08342 0.574237 -3.33884
463 1 16.6842 -0.140943 0.727396 -2.81197
464 1 15.7377 -1.1378 4.88615 -3.06715
465 1 15.1728 -0.438072 2.6879 -3.30406
466 1 -16.6567 1.19046 1.03919 -2.70416
467 1 -14.9781 3.02006 1.58679 -3.23892
468 1 -16.1695 0.323158 3.57412 -3.1002
469 1 -14.4166 0.439468 1.76835 -3.45542
470 1 -12.7249 0.708224 -0.0746114 -3.48032
471 1 -12.6504 0.591773 3.61532 -3.51574
472 1 -14.4734 2.31037 3.8379 -3.43228
473 1 -10.9346 -0.807804 -0.211047 -3.47879
474 1 -9.21162 0.922718 -0.206256 -3.47632
475 1 -9.03909 -0.999819 1.57336 -3.53744
476 1 -10.8184 0.749248 1.81044 -3.50591
477 1 -7.48723 -0.797444 -0.31393 -3.4844
478 1 -5.61671 1.0055 -0.337512 -3.54333
479 1 -5.63555 -0.995957 1.54981 -3.45966
480 1 -7.29767 1.0075 1.50973 -3.52135
481 1 -3.83221 -0.847064 -0.524671 -3.49137
482 1 -2.22291 0.955015 -0.335257 -3.48117
483 1 -2.04507 -1.09044 1.56127 -3.44812
484 1 -3.76911 0.616502 1.59155 -3.50304
485 1 -0.394844 -0.794574 -0.482761 -3.51772
486 1 1.3108 0.971595 -0.324995 -3.50774
487 1 1.40713 -1.06806 1.45094 -3.51797
488 1 -0.339724 0.768622 1.66818 -3.49906
489 1 3.25345 -0.715395 -0.50263 -3.48959
490 1 5.06705 0.866307 -0.228865 -3.50688
491 1 5.0181 -0.962648 1.63901 -3.43165
492 1 3.18358 0.78805 1.55876 -3.51696
493 1 6.74524 -0.992014 -0.434572 -3.53812
494 1 8.30899 0.989948 -0.285862 -3.45376
495 1 8.44132 -1.0282 1.59371 -3.4508
496 1 6.79305 0.621512 1.5691 -3.41236
497 1 10.0548 -0.864139 -0.372034 -3.52732
498 1 12.0355 1.06477 -0.195052 -3.52533
499 1 12.6803 0.201277 2.263 -3.51134
500 1 10.158 0.865544 1.7125 -3.463
501 1 14.3349 0.25304 0.278489 -3.45242
502 1 16.2505 2.21803 0.392553 -3.06417
503 1 16.9274 1.60115 2.90861 -2.77908
504 1 14.5461 2.05678 2.27046 -3.47468
505 1 17.1524 3.09641 47.5058 -2.47434
506 1 -15.7912 3.69459 -1.36465 -2.7397
507 1 -15.1122 4.70875 3.53197 -3.10381
508 1 -13.4035 3.21963 -0.435253 -3.49092
509 1 -11.6106 5.10198 -0.379117 -3.48811
510 1 -12.5968 2.44645 1.96079 -3.47018
511 1 -13.3742 4.86965 1.54198 -3.44939
512 1 -11.0648 2.59185 -0.115973 -3.52412
513 1 -9.33483 4.42344 -0.0341646 -3.49542
514 1 -9.20586 2.53538 1.70596 -3.47726
515 1 -10.9961 4.17152 1.87386 -3.45915
516 1 -7.60189 2.70524 -0.356686 -3.41162
517 1 -5.56286 4.52187 -0.200622 -3.50755
518 1 -5.32664 2.63585 1.70851 -3.45393
519 1 -7.28673 4.14495 1.70036 -3.5314
520 1 -3.78791 2.78651 -0.164081 -3.46914
521 1 -2.16834 4.64213 -0.0981583 -3.39266
522 1 -2.13461 2.50336 1.71988 -3.52916
523 1 -3.755 4.37602 1.78144 -3.43001
524 1 -0.42346 2.75623 -0.221954 -3.52129
525 1 1.41579 4.41076 -0.0333924 -3.51155
526 1 1.45718 2.48049 1.61189 -3.46425
527 1 -0.353215 4.3852 1.83501 -3.54199
528 1 3.28185 2.62795 -0.256852 -3.5045
529 1 4.92321 4.4354 -0.036156 -3.48707
530 1 5.02116 2.4863 1.75205 -3.51333
531 1 3.1424 4.1672 1.89484 -3.50626
532 1 6.74533 2.73651 -0.241807 -3.467
533 1 8.48471 4.40731 -0.0313118 -3.48814
534 1 8.50973 2.51665 1.7769 -3.47814
535 1 6.59002 4.27534 1.86141 -3.48199
536 1 10.0552 2.62055 -0.159977 -3.45476
537 1 11.9834 4.26471 -0.0391925 -3.53257
538 1 11.9995 2.53633 1.93812 -3.47484
539 1 10.265 4.45759 1.83941 -3.52914
540 1 13.935 2.67017 -0.134181 -3.44717
541 1 15.4497 4.72358 -0.0790221 -3.09012
542 1 16.2363 3.86262 2.22391 -3.04137
543 1 13.7236 4.25495 1.86854 -3.47077
544 1 -15.682 5.31219 0.972948 -2.61745
545 1 -14.1937 5.58928 -1.07878 -3.16839
546 1 -12.2377 7.4726 -1.18335 -3.29824
547 1 -11.5467 6.73432 1.4735 -3.47802
548 1 -13.7569 7.31231 0.698656 -2.91941
549 1 -9.82764 6.93232 -0.434341 -3.5246
550 1 -7.81131 8.6102 -0.474133 -3.50169
551 1 -9.14701 6.05181 1.86834 -3.52453
552 1 -9.49455 8.54887 1.57881 -3.49569
553 1 -7.36574 6.18487 -0.00644758 -3.52621
554 1 -5.45561 7.95455 0.162095 -3.49866
555 1 -5.55992 6.05373 1.93579 -3.46459
556 1 -7.13332 7.85199 2.09706 -3.49322
557 1 -3.80175 6.19156 0.0129482 -3.39508
558 1 -2.04239 7.97897 0.06707 -3.51111
559 1 -2.10541 6.12154 1.89187 -3.44935
560 1 -3.72153 7.92867 1.86603 -3.49604
561 1 -0.349668 6.17577 0.11196 -3.47989
562 1 1.40118 8.18017 0.169231 -3.50728
563 1 1.46885 6.14362 2.05144 -3.48231
564 1 -0.289884 7.87104 2.1101 -3.5098
565 1 3.16802 6.29084 0.0986245 -3.52047
566 1 4.95665 8.12319 0.146208 -3.48221
567 1 4.95453 6.07867 1.87892 -3.50633
568 1 3.08831 7.93919 2.17481 -3.50326
569 1 6.73594 6.13203 -0.0502862 -3.5186
570 1 8.62384 7.86537 0.116001 -3.508
571 1 8.41442 6.15266 2.01292 -3.48772
572 1 6.74745 7.84015 2.02022 -3.48865
573 1 10.2607 6.17192 -0.0123273 -3.47983
574 1 11.9197 7.96688 0.234998 -3.39879
575 1 12.0956 6.11862 1.84248 -3.46607
576 1 10.2199 7.76404 2.10228 -3.49603
577 1 13.6654 6.27375 -0.0812171 -3.3176
578 1 15.605 6.15786 2.21671 -2.77744
579 1 13.7776 7.91526 1.97227 -3.11431
580 1 -12.8189 9.72529 -1.50759 -2.66705
581 1 -10.8768 11.7356 -1.21453 -2.80268
582 1 -12.1601 9.13977 0.810889 -3.15583
583 1 -10.3811 9.4196 -1.02775 -3.40724
584 1 -8.54543 11.1215 -0.752357 -3.43645
585 1 -7.76462 10.3106 1.51186 -3.4893
586 1 -10.3058 10.8787 1.14237 -3.23037
587 1 -6.09468 10.4613 -0.319842 -3.5301
588 1 -4.24753 12.2987 -0.238793 -3.51876
589 1 -5.46196 9.69171 2.13837 -3.49423
590 1 -5.92014 12.1317 1.57883 -3.43837
591 1 -3.55579 9.89842 0.162463 -3.51426
592 1 -1.85357 11.7629 0.274973 -3.45677
593 1 -1.84998 9.73547 2.17651 -3.4902
594 1 -3.6854 11.4298 2.10779 -3.40022
595 1 -0.387264 9.86867 0.0267901 -3.46286
596 1 1.44454 11.4519 0.24053 -3.48802
597 1 1.43501 9.7635 2.31198 -3.47626
598 1 -0.17596 11.5552 2.23105 -3.52237
599 1 3.23181 9.74759 0.290592 -3.44406
600 1 5.2101 11.4593 0.367509 -3.51342
601 1 4.94675 9.61467 2.18091 -3.44781
602 1 3.34271 11.2551 2.17592 -3.40138
603 1 6.82386 9.75129 0.109669 -3.42656
604 1 8.49676 11.5223 0.281334 -3.44682
605 1 8.53955 9.58345 2.2126 -3.50187
606 1 6.94121 11.394 2.31972 -3.44043
607 1 10.4124 9.75889 0.304695 -3.48114
608 1 11.9868 11.6325 0.219513 -2.8193
609 1 12.098 9.84536 2.14447 -3.29891
610 1 10.2178 11.5064 2.32985 -3.3079
611 1 13.606 9.71168 0.239105 -2.75894
612 1 -8.94632 13.4404 -1.12735 -2.71682
613 1 -8.44073 12.7627 1.26821 -3.1281
614 1 -6.60592 12.9667 -0.940116 -3.31518
615 1 -4.81389 14.6765 -0.780976 -2.94249
616 1 -4.35434 14.0469 1.60315 -3.2767
617 1 -6.65681 14.3667 0.990869 -2.75857
618 1 -2.59092 14.2221 -0.183533 -3.28796
619 1 -0.438099 15.6902 0.356521 -2.8481
620 1 -2.19935 13.1454 2.29008 -3.37081
621 1 -2.22205 15.6705 2.23966 -2.89058
622 1 -0.0757697 13.3 0.157866 -3.4144
623 1 1.82099 14.967 0.262144 -3.20959
624 1 1.74723 13.0503 2.09186 -3.47316
625 1 -0.181776 14.4849 2.43984 -3.29784
626 1 3.39243 13.187 0.285787 -3.36228
627 1 4.92583 14.8782 0.375177 -2.98086
628 1 5.01528 13.1305 2.32797 -3.44796
629 1 3.37605 14.9439 2.22396 -3.11826
630 1 6.87528 13.474 0.361622 -3.34048
631 1 8.49156 13.1459 2.42736 -3.05104
632 1 6.43978 15.0059 2.38781 -2.66442
633 1 10.1614 13.171 0.458866 -2.7211
634 1 1.38912 16.3143 2.39299 -2.65981
635 1 -4.85932 -14.4904 5.01973 -2.85906
636 1 -6.71855 -14.4165 7.01784 -2.67134
637 1 -0.894792 -13.1915 5.63844 -3.134
638 1 -2.61994 -13.5883 7.40859 -3.11887
639 1 0.824539 -13.2446 3.60803 -3.21781
640 1 1.73653 -13.8838 6.16751 -2.78405
641 1 -0.106245 -14.0085 8.11044 -2.95839
642 1 5.68527 -13.1169 6.64492 -2.89829
643 1 4.01488 -13.3159 8.49863 -3.0418
644 1 6.41205 -13.7124 9.18683 -2.6362
645 1 -12.5842 -11.7489 4.71536 -2.83981
646 1 -10.9982 -13.4658 4.41433 -2.70713
647 1 -8.9667 -12.0033 4.68274 -3.4187
648 1 -9.18686 -13.9396 6.214 -2.95669
649 1 -10.7094 -12.0111 6.52882 -3.35391
650 1 -7.30587 -13.953 4.52407 -3.20604
651 1 -5.60258 -12.1103 4.59502 -3.5098
652 1 -4.99984 -12.8585 7.00187 -3.30988
653 1 -7.34008 -12.2836 6.40199 -3.3818
654 1 -3.24865 -12.656 4.93774 -3.33096
655 1 -1.45664 -10.8109 5.14193 -3.47796
656 1 -0.741467 -11.8171 7.67495 -3.44441
657 1 -3.05583 -11.1232 7.10577 -3.49279
658 1 0.988206 -11.5414 5.51039 -3.41624
659 1 2.67936 -11.4624 3.59827 -3.45476
660 1 1.77332 -12.4617 8.13438 -3.23458
661 1 1.05108 -9.85008 7.75471 -3.49021
662 1 3.34773 -12.1793 5.88562 -3.30174
663 1 5.2692 -10.5182 6.15156 -3.49817
664 1 5.75299 -11.3895 8.7544 -3.45667
665 1 3.43433 -10.7305 8.1005 -3.46637
666 1 7.54197 -11.145 6.94596 -3.36061
667 1 9.39212 -9.28874 7.08153 -3.47044
668 1 8.14796 -12.1533 9.25991 -3.05498
669 1 7.52116 -9.49997 8.86637 -3.501
670 1 9.90368 -11.7749 7.24445 -2.67754
671 1 11.6636 -10.0423 7.66311 -2.83325
672 1 9.83895 -10.2039 9.37413 -3.34934
673 1 -14.2897 -9.85531 5.02449 -2.71664
674 1 -12.4374 -8.24144 5.07847 -3.4613
675 1 -12.5196 -10.1564 6.69854 -3.32524
676 1 -14.2937 -8.26141 6.95043 -3.08956
677 1 -10.6249 -10.0223 4.77216 -3.5246
678 1 -9.04672 -8.2298 4.85019 -3.46917
679 1 -8.94857 -10.1987 6.73158 -3.49922
680 1 -10.7407 -8.48259 6.84534 -3.4794
681 1 -7.43342 -10.1128 4.91522 -3.49527
682 1 -5.4004 -8.41695 4.8155 -3.46836
683 1 -5.59733 -10.3406 6.60949 -3.5361
684 1 -7.18537 -8.37515 6.91575 -3.4718
685 1 -3.86601 -10.234 4.66861 -3.47613
686 1 -2.07938 -8.36952 4.75825 -3.51512
687 1 -1.40817 -9.35957 7.22598 -3.48985
688 1 -3.82713 -8.42132 6.72794 -3.50015
689 1 0.265578 -9.12916 5.31907 -3.46835
690 1 2.0557 -8.81234 3.28655 -3.48617
691 1 2.69094 -9.62647 5.70349 -3.47869
692 1 0.42414 -7.46362 7.49149 -3.50391
693 1 4.57559 -9.70858 3.779 -3.51091
694 1 6.32394 -7.86405 3.98545 -3.49187
695 1 5.15417 -8.94257 8.42273 -3.47648
696 1 4.50279 -8.00334 5.99263 -3.49875
697 1 7.05621 -8.68997 6.52149 -3.50424
698 1 8.68786 -6.84784 6.60648 -3.4625
699 1 9.29188 -7.69564 9.09717 -3.52847
700 1 6.83681 -7.00135 8.51918 -3.49698
701 1 10.9148 -7.25421 7.17027 -3.35211
702 1 12.8659 -5.61352 7.00701 -3.39465
703 1 11.6201 -8.30867 9.46282 -3.28813
704 1 10.994 -5.79304 9.03634 -3.4617
705 1 13.0866 -8.13483 7.4248 -2.77624
706 1 13.4104 -6.63964 9.35279 -3.12903
707 1 -15.9664 -4.70567 5.21194 -3.00633
708 1 -15.8521 -6.49297 6.96146 -2.74886
709 1 -14.2255 -6.5126 5.09626 -3.38291
710 1 -12.5284 -4.78299 5.30814 -3.52309
711 1 -12.4683 -6.7071 7.06185 -3.5143
712 1 -14.2014 -4.66155 7.19967 -3.41822
713 1 -10.7411 -6.48306 5.0683 -3.48459
714 1 -8.99173 -4.88331 5.20629 -3.5055
715 1 -9.03367 -6.77208 6.92628 -3.49146
716 1 -10.6239 -4.91938 7.14592 -3.51432
717 1 -7.16542 -6.63434 5.06276 -3.51226
718 1 -5.59127 -4.77851 5.20812 -3.4134
719 1 -5.5516 -6.62065 6.98403 -3.51396
720 1 -7.4401 -4.89143 7.26649 -3.50428
721 1 -3.9022 -6.52459 4.89425 -3.42482
722 1 -2.09512 -6.45078 2.98898 -3.5129
723 1 -2.07478 -6.73702 7.005 -3.46654
724 1 -3.63731 -4.97864 7.32014 -3.41863
725 1 -0.262859 -8.38553 2.86122 -3.48675
726 1 1.50731 -6.38593 2.99908 -3.47711
727 1 2.05948 -7.2251 5.51823 -3.4756
728 1 -0.370573 -6.68117 5.01097 -3.49339
729 1 3.99917 -7.27055 3.53448 -3.49478
730 1 5.63498 -5.40796 3.54987 -3.50949
731 1 6.36102 -6.24758 5.86441 -3.49255
732 1 3.86767 -5.54529 5.51637 -3.50073
733 1 8.0694 -5.95465 4.20085 -3.49109
734 1 9.8385 -4.13891 4.36356 -3.47758
735 1 8.64891 -5.26978 8.50796 -3.49352
736 1 8.03677 -4.43186 6.09432 -3.48891
737 1 10.3647 -5.04416 6.62232 -3.45291
738 1 12.1925 -3.19998 6.86636 -3.51