ITEM: TIMESTEP
120000
ITEM: NUMBER OF ATOMS
3804
ITEM: BOX BOUNDS ss ss pp
-1.8229590396937933e+01 1.7964877826535158e+01
-1.7732218990244892e+01 1.7290208183580074e+01
-2.6027999999999998e+00 4.5982800000000005e+01
ITEM: ATOMS id type x y z c_peratom
1 1 -5.60121 -14.2261 -2.00276 -3.04741
2 1 -7.32504 -14.4708 -0.243343 -2.76306
3 1 -2.24333 -14.7638 -2.04344 -3.02894
4 1 -3.94802 -14.6148 -0.0474793 -3.05121
5 1 -0.377329 -16.1422 -2.31737 -2.55545
6 1 1.5219 -16.2092 44.2419 -2.83151
7 1 -0.381547 -14.954 -0.290528 -3.176
8 1 5.85266 -15.1672 45.0513 -2.85158
9 1 3.99155 -15.4828 -1.70384 -2.7957
10 1 7.32804 -13.9259 0.607973 -2.72023
11 1 -12.8041 -11.1654 -1.81732 -2.77119
12 1 -10.6741 -12.7692 -1.93504 -2.7525
13 1 -9.11428 -10.9279 -1.91881 -3.35716
14 1 -9.29054 -13.0621 0.128127 -3.0699
15 1 -11.109 -11.1138 -0.107183 -3.28309
16 1 -7.52608 -12.704 -1.80038 -3.28768
17 1 -5.62131 -11.0939 -1.67911 -3.48133
18 1 -5.61459 -12.7444 0.21677 -3.40606
19 1 -7.57729 -11.213 0.176836 -3.50712
20 1 -3.53985 -12.8195 -1.9436 -3.36736
21 1 -2.12771 -12.7043 44.6423 -3.4861
22 1 -1.94172 -13.096 -0.218113 -3.41478
23 1 -3.71846 -11.2113 0.128034 -3.49588
24 1 -0.231456 -14.4855 44.4559 -3.35085
25 1 1.67958 -12.7799 44.5989 -3.46441
26 1 1.65 -14.6955 -2.0464 -3.30886
27 1 -0.213014 -13.0936 -2.06942 -3.53855
28 1 3.34019 -14.5713 44.4853 -3.35496
29 1 5.17177 -12.8083 44.873 -3.42681
30 1 5.92573 -13.5934 -1.53069 -3.2468
31 1 3.43102 -13.0273 -1.93682 -3.5046
32 1 7.75316 -13.7265 45.2723 -3.03937
33 1 9.57901 -11.8793 45.5381 -3.20798
34 1 9.37852 -12.1099 0.770475 -3.06639
35 1 7.78315 -12.0746 -1.13806 -3.34234
36 1 11.1741 -11.8179 -0.899696 -2.7059
37 1 12.9254 -9.94905 -0.828882 -2.8517
38 1 10.9059 -10.367 0.966512 -3.23975
39 1 -14.3077 -8.98458 -1.91581 -2.67485
40 1 -12.7482 -7.38801 -1.59501 -3.37832
41 1 -12.7982 -9.39013 0.0586343 -3.31524
42 1 -14.5598 -7.48211 0.424602 -3.01656
43 1 -11.0713 -9.31336 -1.8958 -3.51157
44 1 -9.29001 -7.46632 -1.87532 -3.51999
45 1 -9.29761 -9.34188 0.160413 -3.50515
46 1 -11.032 -7.62393 0.0830977 -3.49163
47 1 -7.4675 -9.35203 -1.8361 -3.46388
48 1 -5.49555 -9.11452 44.9183 -3.44937
49 1 -5.67654 -9.45436 -0.000920521 -3.50429
50 1 -7.528 -7.60195 0.14035 -3.48189
51 1 -3.82337 -10.8822 44.6013 -3.39926
52 1 -1.97088 -9.31306 45.0665 -3.47823
53 1 -1.85091 -11.0835 -1.90389 -3.47134
54 1 -3.79278 -9.44758 -1.8523 -3.49627
55 1 -0.081902 -11.1167 44.7499 -3.49704
56 1 1.77843 -9.20319 44.9972 -3.47714
57 1 1.53032 -11.3171 -1.8326 -3.52466
58 1 -0.0355608 -9.36252 -1.73767 -3.49517
59 1 3.46271 -11.1847 44.882 -3.45811
60 1 5.18464 -9.36272 44.9882 -3.51082
61 1 5.23087 -11.2074 -1.8756 -3.46439
62 1 3.34074 -9.44381 -1.69862 -3.53901
63 1 7.05876 -11.2643 45.1481 -3.48798
64 1 8.9143 -9.40595 45.1234 -3.47945
65 1 9.28558 -10.1158 -1.02116 -3.47001
66 1 7.01878 -9.40829 -1.61334 -3.48468
67 1 11.4123 -10.1245 45.765 -3.28377
68 1 13.1584 -8.40188 45.8046 -3.24574
69 1 12.8236 -8.39093 1.06971 -3.30535
70 1 11.2254 -8.22463 -0.980381 -3.47278
71 1 14.6777 -8.31044 -0.725352 -2.6812
72 1 14.7203 -6.62642 1.25167 -3.12942
73 1 -16.3027 -3.64842 -1.37316 -2.91314
74 1 -15.8064 -5.476 0.186298 -2.71492
75 1 -14.3067 -5.31254 -1.6839 -3.34532
76 1 -12.5428 -3.66716 -1.2494 -3.45354
77 1 -12.6193 -5.65004 0.356969 -3.53025
78 1 -14.4561 -3.63718 0.386354 -3.36744
79 1 -11.0186 -5.56242 -1.52586 -3.48603
80 1 -9.03163 -5.57355 45.0618 -3.49376
81 1 -9.23276 -5.79518 0.212117 -3.50641
82 1 -10.8281 -3.96463 0.542471 -3.49682
83 1 -7.27848 -7.52154 44.8561 -3.49907
84 1 -5.56184 -5.63517 45.0703 -3.48773
85 1 -5.61129 -7.57867 -1.67019 -3.51388
86 1 -7.38022 -5.83619 -1.6051 -3.49612
87 1 -3.80544 -7.37187 44.8251 -3.47475
88 1 -1.81298 -5.86061 45.1217 -3.4748
89 1 -2.01118 -7.75241 -1.46584 -3.42365
90 1 -3.66199 -6.00341 -1.64766 -3.46008
91 1 -0.0188916 -7.56309 44.976 -3.48204
92 1 1.67484 -5.77 45.0837 -3.48884
93 1 1.66193 -7.60059 -1.68504 -3.46575
94 1 -0.0637746 -5.85458 -1.53953 -3.52265
95 1 3.52409 -7.49752 45.0571 -3.49133
96 1 5.33455 -5.84959 45.1127 -3.47376
97 1 5.28396 -7.67179 -1.65431 -3.52639
98 1 3.41249 -5.91186 -1.53631 -3.51518
99 1 7.26914 -7.3715 45.1834 -3.44955
100 1 8.84631 -5.63808 45.3313 -3.51609
101 1 8.84189 -7.66954 -1.41137 -3.50025
102 1 7.01581 -5.73355 -1.40427 -3.51951
103 1 10.5759 -7.65811 45.2872 -3.45584
104 1 12.1153 -5.7383 45.4373 -3.50416
105 1 13.0943 -6.51431 -0.743637 -3.43271
106 1 10.5819 -5.83268 -1.1538 -3.42705
107 1 14.5961 -6.4572 45.8352 -3.1951
108 1 16.4458 -4.50383 -2.46693 -2.80797
109 1 16.4498 -4.80626 1.26551 -2.71702
110 1 14.7572 -4.8266 -0.578288 -3.34016
111 1 -16.1846 0.0152778 -1.36873 -2.93129
112 1 -16.1498 -1.89946 0.525448 -3.0233
113 1 -14.2873 -1.92461 -1.52556 -3.49019
114 1 -12.5453 -1.68698 45.2543 -3.42767
115 1 -12.6172 -2.0013 0.614752 -3.46964
116 1 -14.3045 -0.301368 0.717816 -3.40344
117 1 -10.9965 -3.80166 45.261 -3.45949
118 1 -9.00894 -2.27084 45.052 -3.47114
119 1 -9.04386 -3.9384 -1.45729 -3.51073
120 1 -10.6414 -2.14063 -1.25845 -3.48114
121 1 -7.27653 -3.95015 45.2439 -3.44378
122 1 -5.41218 -2.32246 45.226 -3.54308
123 1 -5.36901 -4.20914 -1.45734 -3.52071
124 1 -7.11085 -2.24489 -1.37501 -3.49164
125 1 -3.57052 -4.11243 45.092 -3.54854
126 1 -1.85059 -2.26702 45.2156 -3.50769
127 1 -2.00784 -4.23186 -1.3734 -3.45311
128 1 -3.6374 -2.37863 -1.46978 -3.50425
129 1 -0.109854 -4.205 45.1364 -3.44041
130 1 1.45564 -2.41008 45.4863 -3.50273
131 1 1.69968 -4.20337 -1.27567 -3.47992
132 1 -0.219598 -2.61831 -1.2925 -3.49751
133 1 3.45737 -4.13094 45.2557 -3.49976
134 1 5.15945 -2.36141 45.5023 -3.43502
135 1 5.17778 -4.14278 -1.18424 -3.47732
136 1 3.38633 -2.47108 -1.3846 -3.48641
137 1 6.89785 -3.91938 45.5013 -3.46937
138 1 8.76428 -2.30163 45.5602 -3.4677
139 1 8.92763 -4.03317 -1.20361 -3.50307
140 1 6.96661 -2.42573 -1.17675 -3.51253
141 1 10.5684 -3.74923 45.419 -3.44861
142 1 12.463 -2.15828 45.6248 -3.50032
143 1 12.2328 -4.02881 -1.18817 -3.4965
144 1 10.6562 -2.25963 -1.13106 -3.45543
145 1 14.1408 -4.04067 45.5399 -3.48872
146 1 15.9132 -2.24689 45.8152 -3.14448
147 1 16.4314 -2.97531 -0.270266 -2.99841
148 1 14.1493 -2.35137 -0.876245 -3.49967
149 1 -18.1258 2.47659 40.7321 -2.63138
150 1 -16.3388 1.92033 45.301 -3.0604
151 1 -16.0178 1.35101 0.834429 -3.12537
152 1 -14.4158 0.0310919 45.4057 -3.43391
153 1 -12.443 1.47803 45.3827 -3.49912
154 1 -12.4538 -0.272096 -1.22041 -3.51428
155 1 -14.3701 1.38695 -1.20611 -3.35594
156 1 -10.7573 -0.221594 45.5011 -3.42375
157 1 -8.8334 1.44785 45.4116 -3.5078
158 1 -8.83095 -0.465883 -1.33269 -3.50563
159 1 -10.5734 1.28925 -1.17976 -3.48644
160 1 -7.16196 -0.41446 45.3704 -3.51657
161 1 -5.37805 1.29908 45.4027 -3.48075
162 1 -5.35421 -0.623455 -1.43785 -3.48091
163 1 -7.03289 1.28456 -1.22705 -3.51433
164 1 -3.58481 -0.592588 45.3993 -3.47726
165 1 -1.97656 1.25488 45.5409 -3.47162
166 1 -1.79322 -0.59631 -1.29775 -3.53107
167 1 -3.56503 1.17239 -1.12503 -3.50685
168 1 -0.15564 -0.513431 45.347 -3.47845
169 1 1.62155 1.21718 45.5474 -3.44613
170 1 1.60291 -0.773439 -1.20352 -3.5072
171 1 0.00673851 1.09644 -1.02242 -3.50683
172 1 3.39118 -0.461295 45.5022 -3.53154
173 1 5.28862 1.2872 45.6005 -3.48865
174 1 5.19634 -0.712505 -1.1262 -3.51166
175 1 3.32162 1.10464 -0.875283 -3.48461
176 1 7.00289 -0.554183 45.4621 -3.52488
177 1 8.82918 1.12139 45.6678 -3.51143
178 1 8.78919 -0.656522 -1.11325 -3.52784
179 1 6.92205 1.05186 -1.0263 -3.49497
180 1 10.5922 -0.543098 45.6467 -3.47133
181 1 12.3107 1.05806 45.7468 -3.49693
182 1 12.4173 -0.637287 -0.911185 -3.49744
183 1 10.6326 1.12086 -0.78139 -3.50542
184 1 14.3244 -0.611635 45.7592 -3.43393
185 1 16.3004 1.31467 45.8664 -3.18059
186 1 15.9402 -0.621471 -0.795074 -3.31298
187 1 14.2091 1.1288 -0.857765 -3.47076
188 1 17.6677 -0.606135 -2.58569 -2.52817
189 1 -15.9027 4.97877 45.6513 -3.03945
190 1 -15.9592 3.14607 -1.10219 -3.03975
191 1 -14.2016 3.14755 45.5786 -3.47804
192 1 -12.2185 4.75852 45.5395 -3.42145
193 1 -12.353 2.9415 -1.20184 -3.49263
194 1 -14.0955 4.80787 -1.11256 -3.47975
195 1 -10.5249 3.15228 45.4697 -3.4389
196 1 -8.67007 4.98423 45.6516 -3.50924
197 1 -8.81975 3.05609 -1.12309 -3.5165
198 1 -10.7042 4.64703 -1.02665 -3.48023
199 1 -6.89822 3.28934 45.6481 -3.47383
200 1 -5.2786 5.00086 45.8057 -3.46222
201 1 -5.36034 3.02499 -1.01531 -3.48189
202 1 -7.03101 4.82006 -0.876919 -3.51708
203 1 -3.65271 2.94212 45.605 -3.49504
204 1 -1.81247 4.67405 45.5827 -3.48272
205 1 -1.83069 2.9047 -1.06156 -3.43055
206 1 -3.50311 4.69617 -0.913684 -3.49598
207 1 -0.0288894 2.95851 45.5683 -3.48443
208 1 1.89395 4.70554 45.863 -3.50635
209 1 1.69919 2.91428 -0.886852 -3.46765
210 1 -0.282311 4.55082 -0.710393 -3.39869
211 1 3.53594 2.95357 45.7449 -3.44877
212 1 5.21645 4.65325 45.7416 -3.45465
213 1 5.1597 2.68977 -0.696326 -3.43297
214 1 3.43397 4.51024 -0.668529 -3.44455
215 1 7.19038 2.964 45.7227 -3.4535
216 1 8.87639 4.55482 45.9736 -3.44411
217 1 8.77533 2.76263 -0.776104 -3.50531
218 1 6.98335 4.49388 -0.857818 -3.50901
219 1 10.6769 2.922 45.8784 -3.48747
220 1 12.378 4.56228 45.8219 -3.46878
221 1 12.525 2.72535 -0.802653 -3.45195
222 1 10.546 4.50086 -0.692362 -3.50156
223 1 14.2554 2.91647 45.8572 -3.46926
224 1 16.1169 4.56902 45.8756 -2.99516
225 1 16.0193 2.93166 -0.629527 -3.12897
226 1 14.1826 4.39623 -0.747722 -3.39506
227 1 -15.587 6.77897 -1.08235 -2.89669
228 1 -13.9683 6.72433 45.6841 -3.36558
229 1 -12.2589 8.46458 -2.61354 -3.45701
230 1 -12.4614 6.58864 -0.831104 -3.46812
231 1 -13.9336 8.48949 -0.67162 -3.13212
232 1 -10.5559 6.63981 45.7766 -3.5076
233 1 -8.91201 8.44249 45.7957 -3.46223
234 1 -8.82381 6.70089 -0.854706 -3.47739
235 1 -10.6482 8.45935 -0.646541 -3.51171
236 1 -6.97749 6.83489 45.947 -3.53073
237 1 -5.13049 8.43364 45.9492 -3.48362
238 1 -5.15292 6.80373 -0.76229 -3.51212
239 1 -7.10692 8.2865 -0.531518 -3.44953
240 1 -3.38995 6.48479 -2.52823 -3.44493
241 1 -1.56658 8.23499 -2.43122 -3.50176
242 1 -1.78297 6.42151 -0.732148 -3.45931
243 1 -3.39629 8.48841 -0.629679 -3.47134
244 1 0.0121122 6.37811 -2.65488 -3.48234
245 1 1.71993 8.25305 -2.53015 -3.49878
246 1 1.83502 6.39302 -0.749996 -3.46558
247 1 0.169374 8.3122 -0.600351 -3.52855
248 1 3.57369 6.57086 -2.51299 -3.46914
249 1 5.35953 8.16386 -2.41881 -3.49736
250 1 5.14563 6.37486 -0.676818 -3.50942
251 1 3.32835 8.26363 -0.545284 -3.49536
252 1 6.96998 6.2586 -2.61873 -3.49095
253 1 8.77969 8.09978 -2.31198 -3.52096
254 1 8.77701 6.18346 -0.673209 -3.5057
255 1 7.02404 8.13277 -0.486928 -3.50118
256 1 10.5916 6.33896 45.9714 -3.51642
257 1 12.5041 8.08083 -2.47814 -3.43129
258 1 12.2907 6.20682 -0.722729 -3.47952
259 1 10.6304 7.86422 -0.538245 -3.48221
260 1 14.2244 6.39279 -2.48532 -3.38882
261 1 16.0136 6.0627 -0.776708 -2.7313
262 1 14.296 8.01527 -0.638126 -3.10266
263 1 -14.8238 9.20223 45.3092 -2.77923
264 1 -12.9847 10.8128 45.7324 -2.85511
265 1 -12.3179 10.3969 -0.642516 -3.20665
266 1 -10.5208 10.28 -2.62297 -3.47115
267 1 -8.57427 11.9564 -2.48907 -3.37986
268 1 -8.77875 10.1384 -0.575049 -3.48402
269 1 -10.4422 11.9734 -0.579472 -3.23445
270 1 -7.02308 10.094 -2.52501 -3.49032
271 1 -5.34016 11.8481 -2.32557 -3.55062
272 1 -5.28151 9.99814 -0.459527 -3.5157
273 1 -7.08182 11.7525 -0.529279 -3.4344
274 1 -3.22203 10.1704 -2.40349 -3.49795
275 1 -1.65199 12.0302 -2.25905 -3.48609
276 1 -1.60894 10.1603 -0.386523 -3.42939
277 1 -3.57276 11.8484 -0.501103 -3.53675
278 1 0.0845937 10.1288 -2.44224 -3.51001
279 1 1.87187 11.781 -2.30592 -3.45402
280 1 1.73595 10.2739 -0.430667 -3.50723
281 1 -0.0434976 11.9713 -0.332715 -3.45082
282 1 3.55555 9.9736 -2.23738 -3.51101
283 1 5.37425 11.8586 -2.25548 -3.50885
284 1 5.20216 9.98438 -0.29466 -3.46483
285 1 3.72307 11.9134 -0.300075 -3.44873
286 1 7.07011 10.101 -2.08012 -3.4714
287 1 8.89696 11.9239 -2.24109 -3.4091
288 1 8.99342 9.84231 -0.44434 -3.50183
289 1 7.24826 11.6537 -0.175223 -3.50899
290 1 10.6485 9.8583 -2.39394 -3.48768
291 1 12.3206 11.5853 -2.31053 -2.89977
292 1 12.4665 9.78165 -0.65502 -3.29813
293 1 10.6346 11.7311 -0.375615 -3.34386
294 1 14.237 9.72967 -2.29804 -2.7257
295 1 -11.0933 12.6044 45.67 -2.72159
296 1 -8.74498 13.6898 -0.4585 -3.02091
297 1 -7.06034 13.801 -2.29637 -3.17233
298 1 -5.19535 15.2195 -2.20905 -2.89295
299 1 -5.39669 13.5255 -0.348378 -3.45053
300 1 -7.00577 15.5584 -0.154983 -2.60394
301 1 -3.43194 13.6272 -2.30236 -3.41224
302 1 -1.77684 15.5035 -2.1397 -3.14284
303 1 -1.67423 13.7938 -0.413253 -3.42605
304 1 -3.46675 15.4512 -0.349957 -2.99589
305 1 0.337921 13.8065 -2.16594 -3.43599
306 1 2.08972 15.3224 -1.9887 -3.10912
307 1 1.8557 13.5834 -0.098133 -3.46335
308 1 0.101839 15.4037 -0.35752 -3.21696
309 1 3.58687 13.5228 -2.18228 -3.42507
310 1 5.4299 15.325 -2.16318 -3.0001
311 1 5.42132 13.494 -0.26386 -3.42424
312 1 3.70977 15.177 -0.0366342 -3.02054
313 1 7.19208 13.6475 -2.15981 -3.34434
314 1 8.92628 13.5159 -0.282476 -3.09927
315 1 7.18852 15.3542 -0.377589 -2.645
316 1 10.7143 13.4856 -2.37435 -2.68868
317 1 0.187784 17.0478 -2.12434 -2.36407
318 1 -5.77946 -14.8013 1.70848 -2.9764
319 1 -7.45116 -14.7857 3.53732 -2.7249
320 1 -2.15549 -14.7953 1.69771 -3.01301
321 1 -4.02799 -14.7778 3.61654 -2.90677
322 1 1.99075 -15.494 0.255582 -2.96476
323 1 3.55223 -15.5644 2.4167 -2.49802
324 1 0.273913 -15.6341 2.13262 -2.71818
325 1 5.50205 -14.046 2.42739 -3.09142
326 1 3.63959 -14.1976 4.42743 -3.10926
327 1 7.08654 -14.1508 4.18604 -2.7184
328 1 -13.0052 -11.1199 1.90153 -2.82063
329 1 -11.1361 -12.6843 1.64329 -2.74549
330 1 -9.40766 -11.1015 1.92082 -3.38043
331 1 -9.29147 -13.0387 3.47838 -3.12142
332 1 -11.1384 -11.2868 3.7344 -3.32726
333 1 -7.55237 -13.0007 1.87361 -3.31986
334 1 -5.64013 -11.1017 2.03381 -3.48543
335 1 -5.7463 -13.0383 3.78313 -3.43008
336 1 -7.4214 -11.2361 3.88067 -3.51591
337 1 -3.81863 -13.002 1.79282 -3.42294
338 1 -1.93454 -11.3933 2.05403 -3.51357
339 1 -1.97035 -13.4321 3.75541 -3.35685
340 1 -3.78347 -11.5762 3.87823 -3.53399
341 1 -0.255804 -13.2339 1.76414 -3.47141
342 1 1.52715 -13.1464 -0.110113 -3.50564
343 1 2.1722 -13.8658 2.34928 -3.21339
344 1 -0.21518 -11.5758 3.90269 -3.52605
345 1 4.05723 -14.0421 0.326927 -3.3573
346 1 5.68808 -12.0742 0.453634 -3.4482
347 1 5.56452 -12.3472 4.35494 -3.45752
348 1 3.95484 -12.1887 2.37959 -3.43366
349 1 7.48174 -12.3534 2.45149 -3.35638
350 1 9.15086 -10.5021 2.64421 -3.46363
351 1 8.99478 -12.5697 4.39861 -3.10441
352 1 7.3852 -10.6198 4.5384 -3.51295
353 1 10.9062 -12.2403 2.79775 -2.72975
354 1 12.6922 -10.5369 2.80553 -2.84682
355 1 10.8716 -10.5803 4.64441 -3.35171
356 1 -14.4301 -9.20026 2.19563 -2.73288
357 1 -12.5018 -7.5221 2.12838 -3.48316
358 1 -12.8102 -9.44621 3.88088 -3.31423
359 1 -14.4196 -7.49343 4.07464 -3.13749
360 1 -11.1833 -9.55993 1.91586 -3.452
361 1 -9.15521 -7.69952 2.14827 -3.48786
362 1 -9.3746 -9.62166 3.84012 -3.44692
363 1 -10.8744 -7.86625 3.92187 -3.45472
364 1 -7.46877 -9.42156 1.98554 -3.50134
365 1 -5.53368 -7.81556 2.09664 -3.51087
366 1 -5.628 -9.52036 3.99382 -3.49931
367 1 -7.56574 -7.84589 4.02827 -3.4931
368 1 -3.77559 -9.63604 2.02985 -3.47326
369 1 -1.99693 -9.44157 0.222587 -3.46327
370 1 -1.98265 -9.75841 3.97212 -3.47959
371 1 -3.70705 -8.02851 4.01219 -3.46297
372 1 -0.242332 -11.2894 0.058772 -3.50818
373 1 1.66474 -9.67531 0.221958 -3.48805
374 1 1.65847 -11.471 2.03563 -3.47533
375 1 0.0415902 -9.50773 2.19074 -3.43339
376 1 3.38874 -11.4609 0.0199778 -3.51132
377 1 5.15176 -9.65839 0.160013 -3.50972
378 1 5.6127 -10.5402 2.46658 -3.47574
379 1 3.29241 -9.73562 2.00696 -3.48399
380 1 7.44481 -10.3213 0.794398 -3.52329
381 1 9.33195 -8.53117 0.97933 -3.51509
382 1 9.08467 -8.77055 4.6064 -3.50153
383 1 7.48512 -8.51605 2.78652 -3.47064
384 1 11.0735 -8.57497 2.984 -3.45902
385 1 12.8044 -6.8051 3.02435 -3.45748
386 1 12.6997 -8.88816 4.73141 -3.31344
387 1 11.009 -6.98978 4.92092 -3.54082
388 1 14.4335 -8.60439 2.91009 -2.73483
389 1 14.4692 -6.99237 4.89954 -3.12957
390 1 -16.3447 -3.75469 2.09237 -2.95183
391 1 -16.0302 -5.59799 3.90865 -2.70133
392 1 -14.406 -5.6429 2.10401 -3.29977
393 1 -12.5944 -4.03325 2.29562 -3.48758
394 1 -12.5052 -5.96921 4.16269 -3.49102
395 1 -14.2063 -4.18987 4.03574 -3.34678
396 1 -10.7317 -5.84954 2.25963 -3.46785
397 1 -9.02142 -4.08617 2.30913 -3.48563
398 1 -9.18564 -6.06805 4.22005 -3.46391
399 1 -10.8621 -4.25452 4.11982 -3.45477
400 1 -7.24442 -5.97234 2.34117 -3.50914
401 1 -5.71232 -6.02084 0.324295 -3.462
402 1 -5.45594 -6.29835 4.09128 -3.53674
403 1 -7.19924 -4.28257 4.31054 -3.48867
404 1 -3.81889 -7.7509 0.164209 -3.49105
405 1 -1.78336 -6.01262 0.350589 -3.51387
406 1 -1.99094 -7.93337 2.20076 -3.50698
407 1 -3.66471 -6.16785 2.15749 -3.51483
408 1 0.0103178 -7.77182 0.303167 -3.50715
409 1 1.69298 -6.06211 0.452494 -3.4967
410 1 1.63998 -7.86872 2.29085 -3.44078
411 1 -0.132255 -6.10164 2.25479 -3.504
412 1 3.40649 -7.80232 0.372972 -3.51524
413 1 5.19205 -6.0336 0.379102 -3.48905
414 1 5.10167 -8.01632 2.20366 -3.51707
415 1 3.43654 -6.17284 2.29471 -3.5129
416 1 6.95188 -7.73777 0.457731 -3.51627
417 1 8.74727 -5.96453 0.516459 -3.52521
418 1 9.43065 -6.86409 2.80923 -3.47489
419 1 6.89169 -6.16438 2.41533 -3.51674
420 1 11.1856 -6.71093 1.05926 -3.47235
421 1 13.0544 -4.75336 1.24238 -3.4842
422 1 12.7757 -5.11671 5.09077 -3.4992
423 1 11.0955 -5.02144 3.04524 -3.51959
424 1 14.5706 -4.98062 3.08766 -3.33921
425 1 16.4378 -3.27353 3.36183 -3.00529
426 1 16.0654 -5.12761 5.02294 -2.75474
427 1 14.5095 -3.40523 5.11408 -3.4058
428 1 -16.1018 -0.477391 2.60157 -3.1477
429 1 -16.0253 -2.53014 4.28877 -3.08971
430 1 -14.3439 -2.29728 2.36759 -3.4281
431 1 -12.6776 -0.590505 2.54773 -3.45293
432 1 -12.4807 -2.46186 4.35087 -3.47071
433 1 -14.1461 -0.792608 4.43249 -3.36706
434 1 -10.6378 -2.35988 2.43396 -3.49638
435 1 -8.83688 -2.33217 0.563203 -3.45664
436 1 -9.0267 -2.52068 4.39768 -3.49021
437 1 -10.7859 -0.664851 4.40156 -3.48124
438 1 -7.20737 -4.1328 0.425247 -3.52413
439 1 -5.38247 -2.36472 0.492603 -3.46243
440 1 -5.42556 -4.27786 2.29892 -3.50509
441 1 -7.10763 -2.46497 2.48167 -3.53825
442 1 -3.80042 -4.15155 0.374448 -3.44317
443 1 -2.06752 -2.52316 0.461229 -3.47179
444 1 -1.89985 -4.39108 2.25575 -3.46569
445 1 -3.60875 -2.65853 2.47224 -3.51063
446 1 -0.0809754 -4.18955 0.732245 -3.45537
447 1 1.64976 -2.41442 0.6793 -3.48081
448 1 1.61851 -4.3559 2.47926 -3.47741
449 1 -0.165884 -2.52628 2.58062 -3.4706
450 1 3.42538 -4.31593 0.612082 -3.51998
451 1 5.11119 -2.44777 0.746938 -3.4899
452 1 5.21391 -4.39929 2.45325 -3.52449
453 1 3.3088 -2.65578 2.54184 -3.48908
454 1 6.93867 -4.28477 0.64515 -3.51988
455 1 8.82306 -2.48225 0.682218 -3.50303
456 1 8.73201 -4.2584 2.60223 -3.50868
457 1 6.96446 -2.53881 2.60776 -3.48768
458 1 10.6195 -4.1523 0.659026 -3.505
459 1 12.403 -2.34564 0.897234 -3.52084
460 1 12.8251 -3.25888 3.22673 -3.4927
461 1 10.4612 -2.55364 2.62205 -3.50912
462 1 14.6761 -2.99664 1.48684 -3.43415
463 1 16.6068 -1.22802 1.73017 -3.01754
464 1 16.3414 -1.85496 5.34286 -3.03261
465 1 14.5759 -1.41237 3.35467 -3.45632
466 1 -17.5713 1.2271 3.24359 -2.43776
467 1 -15.8304 3.02215 2.62135 -3.17446
468 1 -15.5333 1.03865 4.49575 -3.19018
469 1 -14.2684 1.28812 2.52908 -3.39234
470 1 -12.3661 1.22642 0.738037 -3.5334
471 1 -12.3583 1.0567 4.42356 -3.49086
472 1 -14.0459 2.98479 4.50422 -3.4522
473 1 -10.5398 -0.598662 0.700042 -3.47863
474 1 -8.79324 1.28119 0.720794 -3.52515
475 1 -8.87164 -0.594493 2.43932 -3.43839
476 1 -10.5543 1.14954 2.49379 -3.50073
477 1 -7.05945 -0.743569 0.598981 -3.46342
478 1 -5.3876 1.20694 0.766533 -3.5209
479 1 -5.25846 -0.687889 2.54258 -3.47875
480 1 -7.26643 1.1041 2.68749 -3.45755
481 1 -3.61759 -0.64796 0.622771 -3.5121
482 1 -1.78749 1.14926 0.797419 -3.52913
483 1 -1.87654 -0.762972 2.5793 -3.5064
484 1 -3.65487 0.983156 2.75196 -3.46449
485 1 -0.104714 -0.793015 0.79556 -3.48201
486 1 1.55121 0.937233 1.00708 -3.47485
487 1 1.5508 -0.896978 2.72574 -3.47545
488 1 -0.16706 0.916998 2.80203 -3.48919
489 1 3.43004 -0.801034 0.719914 -3.46571
490 1 5.20801 0.911984 1.1229 -3.47107
491 1 5.11812 -0.974013 2.85047 -3.50899
492 1 3.42351 0.895462 2.92944 -3.49364
493 1 6.9887 -0.819857 0.892704 -3.49365
494 1 8.73854 0.98893 1.00663 -3.50513
495 1 8.748 -0.77105 2.7939 -3.49029
496 1 6.97061 0.951727 3.10789 -3.48005
497 1 10.5376 -0.693544 0.897192 -3.49575
498 1 12.4848 0.895314 1.22582 -3.47591
499 1 12.2701 -0.869086 2.92587 -3.47205
500 1 10.5227 0.806212 2.85896 -3.47487
501 1 14.2617 -0.555122 0.939068 -3.43867
502 1 16.0918 1.30795 1.18752 -3.20057
503 1 16.4697 0.113279 3.82101 -2.98495
504 1 14.2703 0.976939 3.03759 -3.4959
505 1 17.6619 1.18256 -0.626287 -2.51081
506 1 -15.7919 4.74014 0.753408 -2.97335
507 1 -15.798 4.69783 4.81557 -3.06697
508 1 -14.2101 3.03334 0.787102 -3.42619
509 1 -12.4331 4.73629 0.961362 -3.49155
510 1 -12.2267 2.94326 2.82293 -3.47325
511 1 -14.1858 4.63796 2.81462 -3.38652
512 1 -10.6376 3.01305 0.91876 -3.48966
513 1 -8.78113 4.85291 0.98077 -3.51613
514 1 -8.78405 3.03508 2.81249 -3.4314
515 1 -10.563 4.63045 2.99347 -3.45808
516 1 -7.01768 3.02695 0.905529 -3.47911
517 1 -5.33509 4.77748 0.964694 -3.48139
518 1 -5.42041 2.83615 2.75867 -3.54301
519 1 -7.22496 4.69317 2.99369 -3.4404
520 1 -3.57682 3.01324 0.985716 -3.49318
521 1 -1.78714 4.54562 1.19558 -3.44576
522 1 -1.86748 2.73455 2.95642 -3.49349
523 1 -3.51138 4.51474 3.03525 -3.49099
524 1 0.00172304 2.74383 1.07096 -3.46726
525 1 1.76764 4.57002 1.07079 -3.50491
526 1 1.79945 2.75381 3.03821 -3.51892
527 1 -0.0941003 4.52225 3.00868 -3.52087
528 1 3.50912 2.57388 1.12759 -3.47678
529 1 5.22425 4.49973 1.25156 -3.46975
530 1 5.12236 2.66796 3.03187 -3.48682
531 1 3.54432 4.50366 3.02914 -3.45697
532 1 6.88387 2.69444 1.01092 -3.48829
533 1 8.66321 4.53111 1.20901 -3.51772
534 1 8.7628 2.65363 3.03979 -3.49808
535 1 6.96587 4.30063 3.09005 -3.51485
536 1 10.7321 2.77353 1.0665 -3.52862
537 1 12.5232 4.51268 1.10641 -3.44586
538 1 12.3008 2.72563 3.12848 -3.51186
539 1 10.4749 4.36474 3.15131 -3.47472
540 1 14.1299 2.82072 1.24211 -3.44471
541 1 15.9349 4.40192 1.38387 -3.00082
542 1 16.0544 2.73338 3.28053 -3.08238
543 1 14.1948 4.40064 3.25196 -3.42293
544 1 -15.8472 6.41404 2.90664 -2.69938
545 1 -14.1603 6.49437 0.970283 -3.34372
546 1 -12.3047 8.48035 1.24023 -3.44705
547 1 -12.4226 6.41369 2.83994 -3.50511
548 1 -14.1405 8.25763 2.94849 -3.10814
549 1 -10.6804 6.47278 0.861596 -3.4864
550 1 -8.81266 8.14887 1.28433 -3.51413
551 1 -8.97642 6.40434 3.04723 -3.45834
552 1 -10.6282 8.08772 3.08109 -3.45439
553 1 -6.98465 6.45964 1.28381 -3.45932
554 1 -5.17607 8.21441 1.28893 -3.48846
555 1 -5.24354 6.3047 3.1636 -3.50394
556 1 -6.87425 8.16254 3.21337 -3.51219
557 1 -3.43692 6.40929 1.22164 -3.52604
558 1 -1.63936 8.21615 1.31736 -3.48679
559 1 -1.78517 6.48088 3.07504 -3.46867
560 1 -3.59258 8.12889 3.2551 -3.49548
561 1 0.0247029 6.42073 1.19745 -3.53217
562 1 1.8418 8.26978 1.54662 -3.45169
563 1 1.7159 6.14604 3.27075 -3.52387
564 1 -0.017143 8.15593 3.23099 -3.49241
565 1 3.53718 6.38765 1.32897 -3.49506
566 1 5.21904 8.2378 1.23933 -3.47333
567 1 5.17384 6.27051 3.04369 -3.44899
568 1 3.46592 8.07764 3.26827 -3.50695
569 1 6.77187 6.28311 1.15463 -3.47522
570 1 8.85835 7.93971 1.21706 -3.52602
571 1 8.73499 6.16266 3.04161 -3.49685
572 1 6.91281 7.98363 3.15257 -3.45255
573 1 10.5917 6.07268 1.36057 -3.49314
574 1 12.4152 7.88976 1.17052 -3.44855
575 1 12.5141 6.12701 3.21813 -3.48792
576 1 10.7425 7.82409 3.133 -3.48002
577 1 14.3285 6.16579 1.07314 -3.33111
578 1 15.6493 6.32087 3.2788 -2.65543
579 1 14.0999 7.92156 3.13512 -3.02434
580 1 -14.0777 10.2142 1.43915 -2.65042
581 1 -12.2426 11.9191 1.46361 -2.86749
582 1 -12.2418 10.1218 3.18151 -3.30429
583 1 -10.5434 10.1268 1.23198 -3.50097
584 1 -8.53924 11.8109 1.41697 -3.35158
585 1 -8.82891 9.80223 3.23641 -3.52346
586 1 -10.3402 11.7859 3.18289 -3.34023
587 1 -7.07271 9.96864 1.38592 -3.49186
588 1 -5.4089 11.8004 1.39167 -3.54016
589 1 -5.29251 10.0125 3.33407 -3.53206
590 1 -7.10283 11.8419 3.29316 -3.45478
591 1 -3.50038 9.94688 1.4706 -3.50609
592 1 -1.7557 11.6681 1.39359 -3.42954
593 1 -1.80391 9.91031 3.33618 -3.51624
594 1 -3.33441 11.7887 3.3713 -3.46819
595 1 0.00919018 9.94444 1.43606 -3.4689
596 1 1.62456 11.8373 1.69991 -3.4519
597 1 1.64726 9.95498 3.46138 -3.49167
598 1 0.0636638 11.8561 3.43953 -3.43359
599 1 3.38481 10.1351 1.57536 -3.50881
600 1 5.40491 11.6595 1.69181 -3.51717
601 1 5.27112 9.76472 3.2963 -3.49544
602 1 3.42331 11.6427 3.55227 -3.51052
603 1 7.206 9.77333 1.51784 -3.50073
604 1 9.07878 11.3801 1.5719 -3.38089
605 1 8.98756 9.63068 3.38816 -3.49918
606 1 7.25902 11.6421 3.40255 -3.50583
607 1 10.7642 9.74531 1.32684 -3.48932
608 1 12.2145 11.7601 1.58172 -2.80509
609 1 12.3112 9.6309 3.3759 -3.33021
610 1 10.4847 11.4547 3.43457 -3.29862
611 1 13.9032 9.73342 1.33907 -2.744
612 1 -10.2183 13.507 1.52007 -2.79021
613 1 -8.6704 13.6931 3.43732 -3.09249
614 1 -7.12322 13.6811 1.46989 -3.34796
615 1 -5.14592 15.2833 1.33131 -2.98517
616 1 -5.32227 13.3761 3.37361 -3.35846
617 1 -6.52487 15.2806 3.48699 -2.73917
618 1 -3.39968 13.5709 1.521 -3.4891
619 1 -1.90866 15.5894 1.57836 -3.05143
620 1 -1.80513 13.5823 3.65966 -3.3524
621 1 -3.55625 15.1553 3.47607 -3.0991
622 1 -0.0270341 13.6732 1.57653 -3.55225
623 1 2.00163 15.2771 1.61936 -3.0453
624 1 1.70061 13.5059 3.57791 -3.44433
625 1 -0.200694 15.3137 3.64955 -3.15712
626 1 3.68602 13.4396 1.8259 -3.46773
627 1 5.52777 15.0808 1.72027 -3.01087
628 1 5.53079 13.2645 3.61584 -3.37656
629 1 3.85323 15.0878 3.62771 -3.03273
630 1 7.37265 13.3295 1.64831 -3.37441
631 1 8.99706 13.4301 3.61404 -3.06353
632 1 7.16647 14.9018 3.54426 -2.72701
633 1 10.4398 13.392 1.6257 -2.74971
634 1 0.174422 16.7234 1.76093 -2.40423
635 1 -5.78922 -14.89 5.47396 -2.87247
636 1 -7.60979 -14.9163 7.29675 -2.58365
637 1 -1.18244 -14.1726 6.12563 -3.00138
638 1 -3.18714 -14.0828 7.96063 -2.96426
639 1 0.494427 -14.1249 4.06537 -3.15594
640 1 1.88288 -14.4734 6.32947 -2.947
641 1 0.287633 -14.2565 8.3014 -3.12502
642 1 5.60255 -14.2044 6.23438 -2.95352
643 1 3.86895 -14.2148 8.18432 -3.01453
644 1 7.28653 -14.2656 7.99008 -2.6882
645 1 -12.6981 -11.3239 5.74363 -2.81664
646 1 -10.639 -13.1642 5.59799 -2.73769
647 1 -9.16326 -11.3446 5.75811 -3.39249
648 1 -9.35411 -13.248 7.54837 -3.07201
649 1 -11.1288 -11.4282 7.4962 -3.30126
650 1 -7.72649 -13.1433 5.63986 -3.33584
651 1 -5.6251 -11.6525 5.81636 -3.536
652 1 -5.6186 -13.5142 7.57221 -3.31484
653 1 -7.39243 -11.7868 7.6663 -3.48157
654 1 -3.84412 -13.398 5.58559 -3.28308
655 1 -2.08275 -11.7871 5.74243 -3.50666
656 1 -1.53147 -12.5474 8.18073 -3.38446
657 1 -3.87913 -11.7841 7.59043 -3.49628
658 1 0.411648 -12.4071 6.26948 -3.46139
659 1 2.26052 -12.2507 4.38385 -3.44227
660 1 2.11815 -12.5546 8.16024 -3.44677
661 1 0.412934 -10.7986 8.31432 -3.51909
662 1 3.8663 -12.6002 6.22948 -3.41108
663 1 5.56927 -10.7148 6.36541 -3.5176
664 1 5.56475 -12.589 8.39503 -3.36011
665 1 3.94215 -10.8351 8.33805 -3.49125
666 1 7.3318 -12.4882 6.28876 -3.35315
667 1 9.07764 -10.7452 6.37357 -3.41844
668 1 8.9694 -12.5264 8.22586 -3.11567
669 1 7.17424 -10.8437 8.44263 -3.48829
670 1 10.7394 -12.4816 6.45748 -2.7283
671 1 12.504 -10.657 6.47916 -2.90815
672 1 10.7282 -10.9196 8.34213 -3.26574
673 1 -14.5183 -9.34219 5.71025 -2.70539
674 1 -12.6827 -7.92578 5.85711 -3.41083
675 1 -12.9706 -9.78844 7.76434 -3.31047
676 1 -14.5637 -7.84535 7.8891 -3.09673
677 1 -11.0638 -9.65218 5.80795 -3.40911
678 1 -9.22694 -8.03578 5.86454 -3.51759
679 1 -9.07632 -9.91685 7.79906 -3.48845
680 1 -10.8956 -8.09101 7.83235 -3.53411
681 1 -7.33375 -9.68615 5.82349 -3.47877
682 1 -5.55697 -8.0516 6.05241 -3.43829
683 1 -5.75396 -9.99947 7.71474 -3.45331
684 1 -7.41447 -8.13864 7.79496 -3.48298
685 1 -3.88062 -9.76652 5.83342 -3.50599
686 1 -1.93692 -8.22813 5.86277 -3.44944
687 1 -2.0072 -10.0534 7.79194 -3.51335
688 1 -3.91781 -8.54659 8.01681 -3.43203
689 1 -0.241856 -9.92886 5.97011 -3.49794
690 1 1.63547 -9.88587 4.06892 -3.49564
691 1 2.29352 -10.4867 6.42923 -3.52326
692 1 -0.130532 -8.32881 7.92866 -3.47218
693 1 3.98267 -10.5026 4.44978 -3.48487
694 1 5.76015 -8.74235 4.5474 -3.5058
695 1 5.69914 -8.89946 8.59428 -3.47264
696 1 4.02195 -8.75179 6.5107 -3.48341
697 1 7.47218 -8.96411 6.55118 -3.52609
698 1 9.06388 -7.08676 6.6908 -3.42778
699 1 9.10994 -9.12696 8.62613 -3.47552
700 1 7.50728 -7.25243 8.67189 -3.52247
701 1 10.7264 -8.91764 6.65459 -3.51559
702 1 12.7453 -7.28134 6.83723 -3.45258
703 1 12.7095 -9.27577 8.48092 -3.31366
704 1 10.8298 -7.50568 8.70233 -3.48745
705 1 14.3688 -9.01704 6.67311 -2.67516
706 1 14.2938 -7.40802 8.77721 -3.13189
707 1 -16.2316 -4.13465 6.30346 -2.89126
708 1 -16.4335 -5.86295 8.05121 -2.66904
709 1 -14.4806 -5.98864 6.12803 -3.37182
710 1 -12.6105 -4.33551 6.21085 -3.48399
711 1 -12.8347 -6.14648 7.98388 -3.46847
712 1 -14.4996 -4.22731 8.15734 -3.43719
713 1 -10.8451 -6.16546 6.12097 -3.49974
714 1 -9.16392 -4.39992 5.95132 -3.45757
715 1 -9.04336 -6.39438 7.97401 -3.4845
716 1 -10.9586 -4.60439 8.16029 -3.48284
717 1 -7.18815 -6.22337 6.14355 -3.52384
718 1 -5.39497 -4.52496 6.07461 -3.47832
719 1 -5.50593 -6.4306 8.01788 -3.50982
720 1 -7.42515 -4.53729 8.07362 -3.4784
721 1 -3.72524 -6.42139 6.1276 -3.50524
722 1 -1.97553 -6.18931 4.14338 -3.50738
723 1 -2.08461 -6.7015 8.09759 -3.52802
724 1 -3.69162 -4.8179 8.02524 -3.4481
725 1 -0.172854 -8.04989 4.11436 -3.5142
726 1 1.65133 -6.16755 4.12337 -3.45687
727 1 1.47342 -8.12153 6.0729 -3.4965
728 1 -0.277789 -6.45485 6.14142 -3.44705
729 1 3.36496 -8.00412 4.21992 -3.52301
730 1 5.07584 -6.24472 4.28796 -3.50782
731 1 5.72582 -7.02469 6.70179 -3.50513
732 1 3.31033 -6.35141 6.16457 -3.51216
733 1 7.48272 -6.98334 4.92166 -3.43836
734 1 9.19824 -5.17428 4.91587 -3.49073
735 1 9.25802 -5.44132 8.90802 -3.51369
736 1 7.49658 -5.35457 6.86149 -3.44393
737 1 10.9766 -5.32042 6.81869 -3.48582
738 1 12.7173 -3.59427 7.00551 -3.50719
739 1 12.5913 -5.56214 8.6462 -3.50607
740 1 11.0755 -3.52484 8.92882 -3.47238