ITEM: TIMESTEP
150000
ITEM: NUMBER OF ATOMS
3804
ITEM: BOX BOUNDS ss ss pp
-1.7629758467862448e+01 1.7460000078608548e+01
-1.7319800890903871e+01 1.8081613058650792e+01
-3.2534999999999998e+00 4.6633500000000005e+01
ITEM: ATOMS id type x y z c_peratom
1 1 -5.36583 -14.626 -2.49862 -3.00251
2 1 -6.9474 -14.7989 -0.534951 -2.67545
3 1 -2.1889 -14.5065 -2.69157 -3.14874
4 1 -3.73104 -14.6149 -0.633403 -3.0353
5 1 -0.495711 -16.1547 -3.06765 -2.64041
6 1 1.72045 -15.9152 45.6146 -3.02073
7 1 -0.302174 -14.4941 -0.980377 -3.348
8 1 5.42195 -15.4013 45.5676 -2.87528
9 1 3.74082 -15.3609 -2.45773 -3.02692
10 1 6.80883 -14.3869 0.600845 -2.72697
11 1 -12.4177 -11.0287 -2.59383 -2.83195
12 1 -10.5788 -12.7689 -2.63261 -2.73917
13 1 -8.81172 -10.9111 -2.44623 -3.43207
14 1 -9.05024 -13.0409 -0.718932 -3.09383
15 1 -10.6839 -11.252 -0.622463 -3.30165
16 1 -7.17027 -12.8829 -2.4886 -3.40852
17 1 -5.46685 -10.9149 -2.40404 -3.53331
18 1 -5.50467 -12.9304 -0.556844 -3.43887
19 1 -7.25732 -11.1404 -0.474939 -3.45314
20 1 -3.85676 -12.77 -2.50163 -3.42458
21 1 -2.21941 -12.7093 45.412 -3.50338
22 1 -2.18356 -12.6217 -0.708867 -3.48052
23 1 -3.95256 -10.9154 -0.421734 -3.50277
24 1 -0.278469 -14.4226 45.3119 -3.31635
25 1 1.22928 -12.4154 45.2832 -3.49927
26 1 1.44669 -14.0513 -2.71873 -3.42643
27 1 -0.569345 -12.5941 -2.60123 -3.50898
28 1 3.31533 -14.0505 45.3332 -3.44978
29 1 5.59701 -13.0517 45.6671 -3.35217
30 1 6.20806 -14.2146 -1.97107 -3.09985
31 1 3.8336 -13.1382 -2.18225 -3.26804
32 1 7.90206 -13.9722 45.8734 -2.93603
33 1 9.31691 -12.0689 46.0544 -3.17075
34 1 8.5705 -12.6717 0.710907 -3.07659
35 1 7.90677 -12.22 -1.85285 -3.34577
36 1 10.4853 -12.5338 -1.43577 -2.59569
37 1 11.717 -10.5255 -1.26308 -2.85971
38 1 10.1746 -10.8783 0.558615 -3.28759
39 1 -14.2302 -9.04802 -2.45346 -2.72225
40 1 -12.3715 -7.51638 -2.52346 -3.44371
41 1 -12.5196 -9.34355 -0.518522 -3.33501
42 1 -14.3891 -7.5094 -0.466981 -3.07947
43 1 -10.7015 -9.33267 -2.37815 -3.47576
44 1 -9.06682 -7.51368 -2.2467 -3.53306
45 1 -9.0157 -9.34503 -0.382457 -3.54012
46 1 -10.7937 -7.54486 -0.468676 -3.44262
47 1 -7.25181 -9.25604 -2.41942 -3.4234
48 1 -5.50039 -8.97265 45.7547 -3.5264
49 1 -5.78978 -9.27101 -0.427317 -3.4521
50 1 -7.40447 -7.38694 -0.311945 -3.51458
51 1 -3.89993 -10.9016 45.5021 -3.46372
52 1 -2.33584 -8.92297 45.7158 -3.49541
53 1 -2.3127 -10.8117 -2.56426 -3.50859
54 1 -3.95357 -8.90532 -2.08584 -3.48501
55 1 -0.570705 -10.7595 45.417 -3.51772
56 1 1.74829 -9.91226 45.9085 -3.46418
57 1 1.84025 -11.7421 -2.16026 -3.45976
58 1 0.130824 -10.0267 -2.08256 -3.46828
59 1 3.76174 -11.4235 45.7164 -3.47727
60 1 5.16705 -9.49621 45.8238 -3.48783
61 1 5.36497 -11.4829 -2.15901 -3.41442
62 1 3.38527 -9.77794 -2.09141 -3.52297
63 1 7.06751 -11.183 45.7679 -3.44185
64 1 8.76208 -9.47206 45.6451 -3.48967
65 1 9.38894 -10.2164 -1.91595 -3.46409
66 1 6.9438 -9.50186 -2.26222 -3.43787
67 1 11.1385 -10.3356 46.2154 -3.20378
68 1 12.8727 -8.47797 46.2004 -3.20693
69 1 11.9165 -9.01067 0.637766 -3.29891
70 1 11.1017 -8.23148 -1.77825 -3.43304
71 1 13.4796 -8.75524 -1.17979 -2.73928
72 1 13.6934 -7.23634 0.765241 -3.08207
73 1 -15.8788 -4.22803 -2.30576 -2.85445
74 1 -16.2134 -5.73508 -0.170481 -2.72298
75 1 -14.3844 -6.02175 -2.22635 -3.2652
76 1 -12.8029 -3.97754 -2.236 -3.54921
77 1 -12.4967 -5.76678 -0.445897 -3.48503
78 1 -14.2986 -4.01556 -0.30013 -3.48623
79 1 -10.8197 -5.68015 -2.34505 -3.51411
80 1 -9.02838 -5.54034 45.644 -3.45627
81 1 -9.2287 -5.55309 -0.336192 -3.51586
82 1 -11.0543 -3.74428 -0.285905 -3.49955
83 1 -7.43376 -7.26745 45.6916 -3.48898
84 1 -5.70902 -5.49385 45.7639 -3.42714
85 1 -5.74604 -7.26713 -2.27367 -3.47869
86 1 -7.47773 -5.60113 -2.18419 -3.47649
87 1 -3.94177 -7.05999 45.8045 -3.4085
88 1 -1.62543 -6.27535 45.8346 -3.49802
89 1 -1.52369 -8.21876 -1.85219 -3.47808
90 1 -3.28408 -6.50208 -1.87293 -3.44155
91 1 -0.00748214 -8.20092 46.0088 -3.48774
92 1 1.60317 -6.07607 45.8587 -3.46929
93 1 1.62809 -8.14224 -1.88927 -3.43844
94 1 -0.0634578 -6.24384 -2.01241 -3.48192
95 1 3.1807 -7.9405 45.8457 -3.46456
96 1 4.84663 -6.04506 45.9169 -3.51563
97 1 5.16751 -7.80838 -1.95716 -3.46144
98 1 3.17128 -6.19914 -1.90245 -3.50762
99 1 6.88089 -7.68775 45.808 -3.51717
100 1 8.66798 -5.97709 45.9974 -3.48242
101 1 8.54301 -7.83616 -2.19942 -3.41961
102 1 6.81471 -6.12311 -2.09729 -3.42629
103 1 10.4006 -7.66971 45.797 -3.48185
104 1 12.1509 -5.90494 46.0325 -3.51908
105 1 12.8935 -6.44562 -1.44462 -3.34825
106 1 10.4323 -5.95242 -1.97643 -3.46446
107 1 14.4633 -6.52102 46.4472 -3.05803
108 1 16.0783 -4.96279 46.5085 -2.68682
109 1 15.3912 -5.03034 0.717989 -2.70871
110 1 14.4221 -4.49232 -1.59499 -3.27818
111 1 -15.4301 0.329138 -2.79451 -2.94847
112 1 -16.4162 -2.75887 -0.383876 -2.84609
113 1 -14.6584 -2.23898 -2.10447 -3.28562
114 1 -12.8256 -2.16753 45.8057 -3.51706
115 1 -12.7914 -1.97882 -0.290823 -3.44815
116 1 -14.9123 -0.784929 -0.155967 -3.25941
117 1 -10.7565 -3.69738 45.7568 -3.506
118 1 -9.08524 -2.02273 45.7794 -3.41409
119 1 -9.15138 -3.74582 -2.20723 -3.49133
120 1 -11.0722 -2.02591 -2.06624 -3.43845
121 1 -7.29319 -3.75655 45.8913 -3.4172
122 1 -5.24698 -2.64394 46.2443 -3.44294
123 1 -5.13451 -4.83261 -1.70726 -3.52534
124 1 -6.84542 -2.84857 -1.63235 -3.50953
125 1 -3.55077 -4.36565 46.1341 -3.4929
126 1 -1.7863 -2.42622 46.1606 -3.50607
127 1 -1.78209 -4.53787 -1.97875 -3.47465
128 1 -3.51464 -2.8005 -1.78411 -3.50048
129 1 -0.0525795 -4.36679 46.0111 -3.47188
130 1 1.53871 -2.47376 46.2606 -3.50543
131 1 1.45435 -4.40491 -1.66117 -3.454
132 1 -0.219794 -2.65863 -1.73676 -3.50526
133 1 3.2435 -4.20751 46.0577 -3.47605
134 1 4.9775 -2.31636 46.3368 -3.47854
135 1 5.14239 -4.37685 -1.89991 -3.44827
136 1 3.20218 -2.52028 -1.72691 -3.51154
137 1 6.79515 -4.31327 46.149 -3.47108
138 1 8.41241 -2.52762 46.2818 -3.4967
139 1 8.58627 -4.31085 -1.97099 -3.45622
140 1 6.75024 -2.68187 -1.61142 -3.44448
141 1 10.3352 -4.1792 46.1189 -3.50452
142 1 12.0234 -2.23088 46.2018 -3.54369
143 1 12.0402 -4.1042 -1.81309 -3.49105
144 1 10.1742 -2.41492 -1.67875 -3.51837
145 1 13.8325 -4.07749 45.9965 -3.42166
146 1 15.4007 -2.36266 46.4468 -3.16901
147 1 16.2745 -2.76908 -1.12281 -2.81683
148 1 13.6787 -2.19167 -1.85979 -3.42951
149 1 -17.4984 2.78928 41.1409 -2.66572
150 1 -15.2361 2.33361 45.4397 -3.18309
151 1 -15.2397 1.56016 -0.438667 -3.05821
152 1 -13.3674 0.329224 45.3355 -3.50492
153 1 -11.3123 1.8366 45.5671 -3.31435
154 1 -12.9317 -0.48986 -2.20062 -3.31942
155 1 -13.4564 1.76015 -2.24622 -3.38815
156 1 -11.0989 -0.449211 46.0619 -3.38469
157 1 -8.91156 0.754153 46.4601 -3.56145
158 1 -8.78519 -1.11633 -1.66099 -3.53244
159 1 -10.7915 0.569547 -1.47872 -3.49187
160 1 -6.93225 -0.874099 46.4351 -3.44405
161 1 -5.39403 1.09262 46.4072 -3.46721
162 1 -5.22166 -0.928893 -1.7081 -3.49258
163 1 -7.14149 0.710936 -1.70462 -3.44372
164 1 -3.53206 -0.791593 46.2225 -3.48035
165 1 -1.73041 1.21122 46.3765 -3.47775
166 1 -1.9775 -0.839776 -1.78126 -3.50368
167 1 -3.58082 1.00818 -1.76474 -3.53078
168 1 -0.0553551 -0.503691 46.2814 -3.48675
169 1 1.63226 1.2511 46.543 -3.51249
170 1 1.5365 -0.758911 -1.61739 -3.47606
171 1 -0.265404 1.05035 -1.58122 -3.50176
172 1 3.34158 -0.590016 46.3603 -3.47722
173 1 5.03184 1.07981 46.4587 -3.49807
174 1 5.18929 -0.834639 -1.53352 -3.4469
175 1 3.24467 0.960958 -1.30262 -3.46362
176 1 6.71792 -0.636961 46.3779 -3.45916
177 1 8.32238 1.21137 46.4334 -3.51356
178 1 8.35418 -0.747161 -1.54008 -3.49428
179 1 6.63918 0.966371 -1.35648 -3.44447
180 1 10.0944 -0.490599 46.3902 -3.51021
181 1 11.9453 1.16664 46.4196 -3.46377
182 1 11.8717 -0.528027 -1.59251 -3.51177
183 1 9.9622 1.03113 -1.51076 -3.45547
184 1 13.8345 -0.429193 46.398 -3.52902
185 1 15.414 1.6174 46.4258 -3.23416
186 1 15.497 -0.489301 -1.27903 -3.22347
187 1 13.7852 1.15214 -1.42487 -3.47513
188 1 16.7954 -0.441944 46.5497 -2.65036
189 1 -15.1198 4.94037 45.8115 -3.07248
190 1 -15.4366 3.30077 -2.16953 -2.93334
191 1 -13.0048 3.4661 45.7489 -3.34293
192 1 -11.259 4.98096 46.1013 -3.41001
193 1 -11.2189 2.81253 -2.14802 -3.42075
194 1 -13.1496 4.52835 -2.03944 -3.4527
195 1 -9.43315 3.329 45.9893 -3.44185
196 1 -7.83232 5.34522 46.04 -3.49903
197 1 -8.93985 2.50652 -1.45345 -3.508
198 1 -9.53443 4.86993 -1.94534 -3.48562
199 1 -7.15274 2.85997 46.5358 -3.44324
200 1 -5.32172 4.53337 -3.38665 -3.47918
201 1 -5.58113 2.62375 -1.61239 -3.44704
202 1 -7.21851 4.45836 -1.41318 -3.51379
203 1 -3.58343 2.94162 46.3736 -3.49029
204 1 -1.88678 4.76253 -3.45768 -3.45607
205 1 -1.83659 2.96835 -1.5774 -3.47416
206 1 -3.70599 4.51693 -1.25266 -3.47343
207 1 -0.132451 3.0818 46.4464 -3.46008
208 1 1.64546 4.74453 -3.40628 -3.52197
209 1 1.74629 2.82669 -1.3658 -3.44806
210 1 -0.116789 4.54897 -1.38866 -3.48204
211 1 3.40651 3.02357 46.4701 -3.4825
212 1 4.97482 4.83103 -3.3156 -3.46582
213 1 5.06974 2.96858 -1.49133 -3.43594
214 1 3.29652 4.62463 -1.31192 -3.4569
215 1 6.66166 3.06433 46.4662 -3.46157
216 1 8.30618 4.805 -3.19399 -3.49395
217 1 8.43832 2.89702 -1.48196 -3.52862
218 1 6.58448 4.72183 -1.32797 -3.4804
219 1 10.2924 2.94344 -3.29969 -3.53458
220 1 11.8264 4.86279 -3.28155 -3.45871
221 1 11.9375 2.79742 -1.40259 -3.51363
222 1 10.2089 4.73293 -1.338 -3.50105
223 1 13.4747 3.02632 46.4517 -3.43246
224 1 15.2691 4.65435 46.5873 -3.03986
225 1 15.3235 3.03577 -1.34228 -3.14203
226 1 13.5488 4.64114 -1.39006 -3.4644
227 1 -14.7745 6.21629 -1.84549 -2.9087
228 1 -13.116 6.67187 46.2569 -3.47136
229 1 -11.4132 8.62741 46.325 -3.44826
230 1 -11.4396 6.48695 -1.6295 -3.50702
231 1 -13.3212 8.42668 -1.78846 -3.11575
232 1 -9.76846 6.82733 46.0957 -3.46773
233 1 -7.87429 8.64797 46.2016 -3.54963
234 1 -8.05071 6.83617 -1.84864 -3.45277
235 1 -9.67489 8.51456 -1.70777 -3.47882
236 1 -5.99611 6.88297 46.1512 -3.46136
237 1 -4.39763 8.8841 46.3006 -3.48702
238 1 -5.40464 6.33637 -1.47867 -3.48624
239 1 -6.2598 8.7564 -1.65527 -3.47004
240 1 -3.5768 6.34521 -3.15594 -3.44249
241 1 -1.93916 8.07273 -3.09894 -3.4457
242 1 -1.91104 6.21808 -1.2793 -3.47213
243 1 -3.5945 8.2582 -1.31846 -3.47717
244 1 -0.203413 6.51972 -3.36743 -3.46238
245 1 1.52704 8.28638 -3.11178 -3.52882
246 1 1.67844 6.39528 -1.36153 -3.49514
247 1 -0.236161 7.927 -1.12539 -3.49625
248 1 3.40166 6.61283 -3.17971 -3.48472
249 1 5.05862 8.49697 -2.88757 -3.47464
250 1 4.88878 6.5391 -1.19185 -3.47571
251 1 3.31355 8.27055 -1.0354 -3.46335
252 1 6.66959 6.64575 -3.06606 -3.47653
253 1 8.30573 8.35369 -3.02323 -3.50868
254 1 8.49621 6.42563 -1.26318 -3.51117
255 1 6.65676 8.30381 -0.902657 -3.5313
256 1 10.1578 6.50646 -3.16929 -3.47781
257 1 11.7791 8.37904 -2.94736 -3.42707
258 1 11.9245 6.54639 -1.24404 -3.44057
259 1 10.0909 8.34105 -1.08502 -3.49804
260 1 13.5229 6.64898 -3.0744 -3.33569
261 1 15.438 6.39467 -1.2428 -2.65338
262 1 13.6224 8.08741 -1.19567 -3.03817
263 1 -13.6876 9.17412 45.9048 -2.83984
264 1 -12.0838 11.0673 45.9672 -2.85773
265 1 -11.42 10.3303 -1.64845 -3.25581
266 1 -9.67616 10.525 46.4685 -3.44945
267 1 -7.84225 12.3283 46.4317 -3.34049
268 1 -7.92185 10.3662 -1.65414 -3.46205
269 1 -9.77324 12.2532 -1.5564 -3.19438
270 1 -6.14184 10.5833 46.5057 -3.49027
271 1 -4.39956 12.3634 46.64 -3.49023
272 1 -4.4155 10.5643 -1.46105 -3.53371
273 1 -6.28515 12.36 -1.47973 -3.52181
274 1 -2.68011 10.5689 46.5394 -3.53014
275 1 -0.938851 12.4437 -3.21232 -3.48732
276 1 -1.89901 9.93617 -0.979738 -3.46464
277 1 -2.62705 12.3848 -1.25014 -3.51898
278 1 -0.332846 9.9549 -2.74708 -3.4557
279 1 1.39427 11.6876 -2.72974 -3.46031
280 1 1.46569 9.83578 -0.941416 -3.51181
281 1 -0.215357 11.7846 -0.780752 -3.51035
282 1 3.35819 10.179 -2.89503 -3.47748
283 1 4.96801 12.0103 -2.69135 -3.4806
284 1 4.87902 10.1592 -0.853709 -3.5254
285 1 3.08138 11.7559 -0.705394 -3.47995
286 1 6.65863 10.2691 -2.77007 -3.47519
287 1 8.28801 12.0765 -2.68313 -3.4096
288 1 8.32089 10.17 -0.996612 -3.46434
289 1 6.82075 11.9857 -0.732677 -3.43296
290 1 10.0347 10.1196 -2.7757 -3.496
291 1 11.8577 11.819 -2.69239 -2.86868
292 1 11.8594 10.0573 -0.930686 -3.31061
293 1 10.1969 11.8268 -0.839637 -3.34038
294 1 13.4909 9.96078 -2.88907 -2.73399
295 1 -10.2803 12.8002 45.7988 -2.74576
296 1 -8.20923 14.0484 -1.33371 -2.92874
297 1 -6.26375 14.0875 -3.34834 -3.21663
298 1 -4.34969 15.9177 -3.09209 -2.87022
299 1 -4.45598 14.0057 -1.36762 -3.43201
300 1 -6.31653 15.5772 -1.28243 -2.7126
301 1 -2.70209 14.0803 -3.16664 -3.4393
302 1 -1.05875 15.9569 -2.85131 -3.14483
303 1 -0.996568 14.2212 -1.13551 -3.42426
304 1 -2.77773 15.8387 -1.14165 -3.00993
305 1 0.731731 14.1447 -3.03309 -3.49818
306 1 2.564 16.0786 -2.98097 -3.08661
307 1 1.37232 13.5887 -0.594847 -3.4888
308 1 0.748207 16.0745 -1.2804 -3.08172
309 1 3.06572 13.5529 -2.57791 -3.49846
310 1 4.83084 15.4626 -2.52996 -3.12003
311 1 4.87321 13.5106 -0.878377 -3.4517
312 1 3.29281 15.5052 -0.490372 -3.08452
313 1 6.77056 13.9753 -2.59872 -3.28956
314 1 8.42653 13.642 -0.582047 -3.08659
315 1 6.60108 15.2936 -0.67516 -2.74466
316 1 10.0211 13.6294 -2.55329 -2.74566
317 1 0.854247 17.671 -3.08784 -2.33712
318 1 -5.48639 -14.7067 1.54544 -2.99407
319 1 -7.3183 -14.5337 3.28906 -2.73913
320 1 -1.83827 -14.818 1.0027 -2.96646
321 1 -3.50748 -14.6872 3.14449 -2.96003
322 1 1.5411 -16.2037 -1.48629 -2.88132
323 1 3.59352 -16.0032 -0.0403825 -2.66117
324 1 1.27221 -15.9636 0.811667 -2.6542
325 1 5.1868 -14.7542 2.44459 -2.96973
326 1 3.85945 -14.9049 4.51391 -3.00107
327 1 6.8831 -14.6451 4.38283 -2.77064
328 1 -12.6159 -11.1239 1.27511 -2.83052
329 1 -10.7261 -12.7653 1.1596 -2.77309
330 1 -8.83976 -11.2173 1.24244 -3.40291
331 1 -9.16647 -13.0347 3.15707 -3.08642
332 1 -11.0281 -11.4122 3.15689 -3.24152
333 1 -7.35188 -13.1511 1.266 -3.30257
334 1 -5.61784 -11.2069 1.46719 -3.5611
335 1 -5.28297 -12.8831 3.37964 -3.35585
336 1 -7.31073 -11.3656 3.33216 -3.50217
337 1 -3.6887 -12.9746 1.31518 -3.47839
338 1 -1.27129 -12.2461 1.81369 -3.46243
339 1 -1.26066 -14.2287 3.6456 -3.14929
340 1 -2.97779 -12.4255 3.6366 -3.41802
341 1 0.425502 -13.9263 1.6789 -3.28111
342 1 2.1595 -13.8232 -0.315826 -3.53792
343 1 2.86867 -14.3294 2.26424 -3.281
344 1 0.286878 -12.2126 3.81552 -3.50853
345 1 4.52912 -13.9629 0.169656 -3.20536
346 1 6.21807 -12.0157 0.0904882 -3.38811
347 1 5.28659 -12.8362 4.51719 -3.40022
348 1 4.37065 -12.2367 2.25849 -3.4778
349 1 6.74316 -12.8792 2.5673 -3.34272
350 1 8.47514 -10.9513 2.71863 -3.43905
351 1 8.8626 -12.945 4.4243 -3.07229
352 1 6.94987 -11.1224 4.5604 -3.46798
353 1 10.386 -12.6171 2.61844 -2.67089
354 1 12.0623 -10.5985 2.57544 -2.84023
355 1 10.3584 -10.9395 4.53709 -3.31961
356 1 -14.2875 -9.27979 1.39474 -2.74905
357 1 -12.4581 -7.70607 1.21438 -3.40504
358 1 -12.669 -9.51353 3.15548 -3.32273
359 1 -14.652 -7.66792 3.30842 -3.04126
360 1 -10.8212 -9.63206 1.28183 -3.45593
361 1 -9.20652 -7.49313 1.3553 -3.506
362 1 -9.05065 -9.5908 3.05698 -3.49568
363 1 -10.8739 -7.61961 3.37335 -3.49531
364 1 -7.24671 -9.19313 1.48128 -3.45037
365 1 -4.87089 -8.64092 1.86692 -3.48225
366 1 -4.81209 -10.592 3.76546 -3.46993
367 1 -6.69196 -9.03923 3.8765 -3.46299
368 1 -3.07828 -10.5105 1.90522 -3.54422
369 1 -1.36491 -10.276 -0.111874 -3.51734
370 1 -1.40328 -10.4751 3.88316 -3.46294
371 1 -3.11016 -8.78073 3.97812 -3.49725
372 1 0.425875 -12.1066 -0.124329 -3.48098
373 1 1.8338 -10.0979 -0.11274 -3.50871
374 1 1.99062 -11.9913 1.8464 -3.50027
375 1 0.156188 -10.298 1.97869 -3.48399
376 1 3.77715 -11.5752 -0.181088 -3.46364
377 1 5.18303 -9.66579 -0.255389 -3.42236
378 1 6.20982 -10.3646 2.16996 -3.47617
379 1 3.56469 -10.022 1.81166 -3.48076
380 1 7.79455 -10.335 0.128362 -3.42708
381 1 9.45941 -8.46445 0.41381 -3.48836
382 1 8.61852 -9.14115 4.71139 -3.50076
383 1 7.62049 -8.47618 2.31602 -3.43769
384 1 10.1513 -9.22018 2.66991 -3.44649
385 1 11.906 -7.28061 2.75985 -3.43593
386 1 12.1372 -9.20275 4.69073 -3.31169
387 1 10.2804 -7.39262 4.73027 -3.49306
388 1 13.7014 -8.88504 2.61794 -2.71724
389 1 13.8992 -7.44372 4.70725 -3.08376
390 1 -16.1561 -4.16186 1.6644 -3.05858
391 1 -16.3642 -5.80741 3.56603 -2.72353
392 1 -14.5687 -6.04849 1.56859 -3.29749
393 1 -12.6898 -3.92602 1.58248 -3.43584
394 1 -12.7247 -5.98918 3.31212 -3.49732
395 1 -14.455 -4.24865 3.6444 -3.47596
396 1 -10.977 -5.70438 1.47945 -3.47187
397 1 -8.61243 -5.15399 2.06409 -3.4923
398 1 -8.37973 -7.0314 3.7685 -3.5212
399 1 -10.3213 -5.17539 3.93527 -3.49272
400 1 -6.63193 -6.86582 2.01029 -3.4467
401 1 -4.77749 -6.75544 0.0142254 -3.5283
402 1 -5.1496 -7.14472 3.88021 -3.50845
403 1 -6.81069 -5.20419 3.87678 -3.49466
404 1 -3.12876 -8.61452 0.151678 -3.44365
405 1 -1.47636 -6.57631 0.0641086 -3.46229
406 1 -1.41302 -8.40823 2.05568 -3.43617
407 1 -3.30694 -6.84732 2.09303 -3.47976
408 1 0.184804 -8.25533 -0.0113086 -3.42709
409 1 1.66659 -6.28247 0.0721043 -3.50404
410 1 1.81244 -8.357 1.97854 -3.47619
411 1 0.0808459 -6.67779 2.20123 -3.44573
412 1 3.43362 -8.13428 -0.105633 -3.48982
413 1 5.08518 -6.18326 -0.0393742 -3.46962
414 1 5.30093 -7.96813 1.82906 -3.48608
415 1 3.291 -6.38366 1.98453 -3.51522
416 1 6.93942 -8.01955 -0.227568 -3.47267
417 1 8.58241 -5.90506 0.0170981 -3.51256
418 1 9.40639 -6.82987 2.44055 -3.49226
419 1 6.80472 -6.06723 1.96379 -3.47439
420 1 11.1984 -6.59469 0.576936 -3.47637
421 1 12.8619 -4.64871 0.516618 -3.4551
422 1 12.2076 -5.66751 4.71177 -3.46502
423 1 11.1901 -4.98484 2.51255 -3.48674
424 1 13.7907 -5.59948 2.75769 -3.35615
425 1 15.2591 -3.7118 2.87312 -3.02864
426 1 15.5192 -5.38163 4.69666 -2.71845
427 1 13.7359 -3.75345 4.69845 -3.43553
428 1 -16.6667 -1.28985 1.67953 -2.81927
429 1 -16.2687 -2.58855 3.70408 -3.02914
430 1 -14.3935 -2.35586 1.8517 -3.39508
431 1 -12.2361 -1.57029 2.26834 -3.42972
432 1 -12.1415 -3.40475 4.13605 -3.49875
433 1 -13.931 -1.72334 4.27166 -3.45786
434 1 -10.4356 -3.13346 2.25004 -3.43336
435 1 -8.65703 -3.08469 0.141116 -3.52424
436 1 -8.669 -3.47395 3.81474 -3.41542
437 1 -10.5152 -1.49255 4.0535 -3.50782
438 1 -6.769 -4.95125 0.154509 -3.52935
439 1 -5.20771 -2.97091 0.170436 -3.49595
440 1 -5.08528 -5.03756 2.1119 -3.48173
441 1 -6.8211 -3.26829 2.19407 -3.50263
442 1 -3.36511 -4.71776 0.140986 -3.50522
443 1 -1.96399 -2.7373 0.107381 -3.47578
444 1 -1.76466 -4.79604 2.10108 -3.48185
445 1 -3.53301 -2.98866 2.02463 -3.50145
446 1 -0.258223 -4.56538 0.193843 -3.45274
447 1 1.55021 -2.64699 0.233617 -3.50944
448 1 1.55925 -4.49342 2.22314 -3.4592
449 1 -0.314244 -2.87181 2.02993 -3.43505
450 1 3.37756 -4.38943 0.0329357 -3.48486
451 1 4.87036 -2.51919 0.356841 -3.48011
452 1 4.96653 -4.4103 2.07857 -3.47535
453 1 3.16031 -2.78321 2.3586 -3.43909
454 1 6.52394 -4.35768 0.189588 -3.40457
455 1 8.52848 -2.7657 0.178342 -3.48275
456 1 8.74958 -4.39585 1.99589 -3.44542
457 1 6.90252 -2.81935 2.29459 -3.48727
458 1 10.4833 -4.3048 0.115522 -3.4555
459 1 11.9834 -2.37183 0.0787674 -3.47973
460 1 12.6499 -3.04886 2.40712 -3.49248
461 1 10.2605 -2.47138 2.14767 -3.4724
462 1 14.5274 -2.92931 0.513802 -3.25699
463 1 15.9846 -1.12269 1.15145 -2.91228
464 1 15.7488 -1.81204 4.63658 -3.0378
465 1 14.3769 -1.40001 2.77967 -3.23969
466 1 -16.8336 0.993608 1.60845 -2.60949
467 1 -14.8446 2.55822 1.88547 -3.2766
468 1 -16.0228 0.0377107 3.89504 -3.16884
469 1 -14.1733 0.167256 2.251 -3.48871
470 1 -12.6201 0.417685 0.314927 -3.52148
471 1 -12.3698 0.201265 4.08895 -3.49845
472 1 -14.1253 2.04529 4.27221 -3.41579
473 1 -10.524 -1.2341 0.3573 -3.527
474 1 -8.75338 0.499924 0.328578 -3.50235
475 1 -8.60785 -1.45318 2.18801 -3.48098
476 1 -10.5962 0.384649 2.27955 -3.52267
477 1 -6.95311 -1.16817 0.276896 -3.50429
478 1 -5.39383 0.79707 0.161967 -3.49146
479 1 -5.3244 -1.26915 2.28151 -3.48581
480 1 -7.07435 0.45265 2.28565 -3.49955
481 1 -3.69409 -0.916852 0.193138 -3.4763
482 1 -1.95533 0.883053 0.213384 -3.46946
483 1 -1.93654 -1.04659 2.14472 -3.50679
484 1 -3.71438 0.597387 2.07752 -3.48629
485 1 -0.217161 -0.848418 0.120617 -3.49373
486 1 1.44538 0.85052 0.530622 -3.43558
487 1 1.34299 -1.15713 2.51128 -3.48898
488 1 -0.21093 0.731128 2.30356 -3.48196
489 1 3.0819 -0.827874 0.356546 -3.40787
490 1 5.07059 0.779742 0.618766 -3.50814
491 1 4.98318 -1.02723 2.40366 -3.49964
492 1 3.22389 0.622066 2.4618 -3.52621
493 1 6.91932 -1.00708 0.559646 -3.49802
494 1 8.39753 1.04425 0.442917 -3.50186
495 1 8.51463 -0.853611 2.47597 -3.46998
496 1 6.69776 0.903082 2.45224 -3.51336
497 1 10.1369 -0.680838 0.439659 -3.5224
498 1 11.9142 1.07271 0.581588 -3.46753
499 1 11.8675 -0.584238 2.42109 -3.48527
500 1 10.1483 1.17532 2.38755 -3.46548
501 1 13.6803 -0.601791 0.267186 -3.45924
502 1 15.6222 1.29872 0.484242 -3.1894
503 1 16.2011 0.280614 3.29082 -2.90445
504 1 13.8618 0.877629 2.44439 -3.48571
505 1 17.094 1.25056 -1.70679 -2.50541
506 1 -14.8181 4.53551 0.0438407 -3.03758
507 1 -15.0822 4.33144 3.8578 -3.09205
508 1 -13.0291 2.85247 -0.0154454 -3.43674
509 1 -11.2764 4.57915 0.0639104 -3.49584
510 1 -12.5392 1.97438 2.47709 -3.43696
511 1 -13.1745 4.4945 1.91466 -3.46874
512 1 -10.6282 2.11538 0.435528 -3.49294
513 1 -8.93805 4.06376 0.513671 -3.44668
514 1 -8.93663 2.25911 2.30616 -3.50066
515 1 -10.7995 3.84754 2.4099 -3.49443
516 1 -7.18284 2.53462 0.444 -3.46901
517 1 -5.40607 4.3918 0.577113 -3.47814
518 1 -5.46819 2.47058 2.30711 -3.48933
519 1 -7.25411 4.25668 2.29267 -3.44619
520 1 -3.62144 2.62627 0.302547 -3.4997
521 1 -1.90237 4.5569 0.479648 -3.47396
522 1 -2.0541 2.49735 2.32693 -3.49813
523 1 -3.62665 4.39437 2.32906 -3.49651
524 1 -0.289055 2.60004 0.642155 -3.48706
525 1 1.49376 4.48269 0.646675 -3.49181
526 1 1.52543 2.61243 2.42647 -3.50675
527 1 -0.35919 4.4772 2.43628 -3.52459
528 1 3.2439 2.67548 0.63182 -3.46793
529 1 4.9589 4.37252 0.676559 -3.4327
530 1 4.82554 2.6105 2.49939 -3.48974
531 1 3.12646 4.39157 2.83325 -3.46403
532 1 6.69725 2.87363 0.460467 -3.43176
533 1 8.42775 4.5531 0.585827 -3.48922
534 1 8.40323 2.82124 2.54792 -3.45313
535 1 6.66682 4.44103 2.64731 -3.47426
536 1 10.2519 2.90242 0.395553 -3.49737
537 1 12.042 4.65029 0.679564 -3.50479
538 1 12.1409 2.60281 2.56949 -3.48336
539 1 10.2952 4.40273 2.65428 -3.51276
540 1 13.6878 2.82041 0.56475 -3.42545
541 1 15.1949 4.63008 0.661528 -3.03587
542 1 15.5933 2.80964 2.56865 -3.07107
543 1 13.7582 4.4306 2.66781 -3.37863
544 1 -14.9961 6.17662 1.96815 -2.67163
545 1 -13.2172 6.34517 0.0518982 -3.31152
546 1 -11.4319 8.36091 0.0877963 -3.45612
547 1 -11.3257 6.40618 1.99036 -3.44598
548 1 -13.0984 7.96791 1.84555 -3.1238
549 1 -9.60124 6.53477 0.077661 -3.49219
550 1 -7.89866 8.52741 0.312552 -3.48397
551 1 -8.87837 5.93611 2.33983 -3.4527
552 1 -9.85105 8.24398 2.13428 -3.49857
553 1 -7.21953 6.18301 0.443948 -3.49971
554 1 -5.57538 8.07459 0.724154 -3.47123
555 1 -5.60557 6.07758 2.59513 -3.52002
556 1 -7.37224 7.82306 2.6579 -3.5017
557 1 -3.88088 6.28284 0.66936 -3.49637
558 1 -2.10784 7.97471 0.71315 -3.5021
559 1 -2.02356 6.23542 2.49496 -3.46238
560 1 -3.70731 7.89976 2.68828 -3.47124
561 1 -0.307014 6.30693 0.656935 -3.45604
562 1 1.5044 8.10557 0.814602 -3.48379
563 1 1.41014 6.35835 2.74354 -3.44904
564 1 -0.263409 7.9262 2.69716 -3.43823
565 1 3.15966 6.18392 0.795692 -3.4941
566 1 4.9466 8.07438 0.940058 -3.49438
567 1 4.83427 6.23592 2.74386 -3.5114
568 1 3.23336 8.07095 2.93438 -3.49692
569 1 6.65633 6.29693 0.791873 -3.51074
570 1 8.47416 8.03263 0.754107 -3.48383
571 1 8.48256 6.14569 2.54477 -3.50108
572 1 6.74732 8.02053 2.73219 -3.52824
573 1 10.2702 6.22618 0.706215 -3.41458
574 1 11.6233 8.07391 0.872829 -3.41391
575 1 12.1073 6.19093 2.79443 -3.4986
576 1 10.2235 7.94817 2.80399 -3.50114
577 1 13.727 6.61355 0.759884 -3.35372
578 1 15.2867 6.31899 2.69 -2.73227
579 1 13.5302 8.14605 2.88876 -3.0521
580 1 -13.2715 10.0771 -0.024191 -2.63497
581 1 -11.5625 11.9029 0.232468 -2.85626
582 1 -11.6642 10.0077 2.18081 -3.29458
583 1 -9.8341 10.1716 0.385049 -3.47456
584 1 -8.27101 12.0438 0.336473 -3.41052
585 1 -8.02462 10.3381 2.30649 -3.5199
586 1 -10.0711 11.9184 2.27853 -3.29723
587 1 -6.29343 10.4841 0.372547 -3.52376
588 1 -4.4742 12.2484 0.541879 -3.52988
589 1 -5.58659 9.69012 2.91629 -3.51292
590 1 -6.33108 12.0455 2.38073 -3.48738
591 1 -3.74785 9.81215 0.999782 -3.47216
592 1 -2.16265 11.5459 1.18479 -3.48555
593 1 -2.0516 9.59038 2.8014 -3.48673
594 1 -3.87764 11.433 2.98605 -3.5043
595 1 -0.242561 9.69088 0.8766 -3.49446
596 1 1.53497 11.602 1.09554 -3.48925
597 1 1.41843 9.79187 2.7697 -3.50893
598 1 -0.370363 11.6348 3.01913 -3.50514
599 1 3.31254 9.84479 1.14299 -3.46049
600 1 4.88372 11.7709 1.10142 -3.5301
601 1 5.02179 9.83362 2.94719 -3.47211
602 1 3.25463 11.4623 3.01194 -3.47985
603 1 6.70431 10.0547 0.987856 -3.54765
604 1 8.46178 11.7248 1.22812 -3.39015
605 1 8.44481 9.84354 3.134 -3.47219
606 1 6.67425 11.6126 3.16609 -3.51945
607 1 9.87151 9.95253 1.09027 -3.40282
608 1 11.7098 11.4926 1.15938 -2.90329
609 1 11.8946 9.74166 2.86846 -3.26816
610 1 10.1723 11.7229 3.19177 -3.29063
611 1 13.5309 9.60038 0.821788 -2.77364
612 1 -9.76519 13.7924 0.697417 -2.67213
613 1 -8.26019 13.6259 2.48944 -3.1083
614 1 -6.40739 13.8162 0.557692 -3.39102
615 1 -4.52879 15.56 0.572505 -2.98811
616 1 -4.51149 13.8259 2.5442 -3.42447
617 1 -6.43838 15.3496 2.59713 -2.6736
618 1 -2.70386 14.0687 0.603484 -3.40215
619 1 -1.11751 15.8584 0.761518 -3.02966
620 1 -2.23335 13.3693 3.07897 -3.46021
621 1 -2.94315 15.7056 2.76514 -2.97683
622 1 -0.338215 13.3111 1.18465 -3.50123
623 1 1.32959 15.3573 1.24343 -3.23371
624 1 1.58607 13.3755 2.84837 -3.50246
625 1 -0.45673 15.1156 3.12679 -3.29203
626 1 3.21707 13.6647 1.14592 -3.41085
627 1 4.96828 15.2663 1.19409 -2.9289
628 1 4.8366 13.4055 3.1167 -3.34929
629 1 3.25755 15.297 3.19662 -3.11949
630 1 6.66657 13.5504 1.33055 -3.36299
631 1 8.42614 13.3368 3.31098 -3.08012
632 1 6.53166 14.8868 3.44593 -2.71212
633 1 10.1652 13.4261 1.21351 -2.68563
634 1 1.05396 16.8719 3.15941 -2.45266
635 1 -5.39712 -14.7561 4.81379 -2.93055
636 1 -7.15607 -14.6515 7.06521 -2.67736
637 1 -0.525583 -14.696 6.37376 -3.02636
638 1 -2.41641 -14.8652 8.19137 -2.9804
639 1 1.14808 -14.5549 4.15087 -3.07205
640 1 2.30497 -14.8806 6.34968 -3.02048
641 1 0.7984 -15.1529 8.58484 -3.07249
642 1 5.48561 -14.8563 6.44303 -3.00054
643 1 3.91179 -14.8776 8.37909 -3.04823
644 1 7.37776 -14.751 8.24768 -2.68255
645 1 -12.7431 -11.3741 5.19025 -2.81513
646 1 -10.8612 -13.0336 4.9324 -2.68665
647 1 -9.05666 -11.326 5.18718 -3.42763
648 1 -9.04008 -13.0866 7.05276 -3.11634
649 1 -10.9636 -11.3291 7.0735 -3.3153
650 1 -7.40248 -13.1472 5.21823 -3.27361
651 1 -4.69473 -12.5538 5.77099 -3.4915
652 1 -4.72652 -14.3432 7.59188 -3.1382
653 1 -6.70428 -12.3892 7.63961 -3.41639
654 1 -3.06253 -14.4422 5.63237 -3.14917
655 1 -1.4235 -12.5602 5.70738 -3.4837
656 1 -0.706363 -12.9485 8.28815 -3.48107
657 1 -3.10586 -12.5432 7.80401 -3.47466
658 1 1.07386 -12.6901 6.32732 -3.44102
659 1 2.74297 -12.7282 4.27749 -3.50926
660 1 2.18187 -13.1485 8.53933 -3.44735
661 1 0.821951 -11.0855 8.38614 -3.46187
662 1 3.75595 -12.9669 6.56206 -3.45043
663 1 5.54305 -11.3045 6.55704 -3.461
664 1 5.53999 -13.1464 8.39602 -3.39918
665 1 3.85688 -11.3714 8.49732 -3.48342
666 1 7.18743 -13.072 6.39967 -3.34289
667 1 8.72688 -11.1748 6.29367 -3.40096
668 1 8.973 -12.7977 8.31013 -3.09112
669 1 7.29055 -11.0974 8.3253 -3.45761
670 1 10.6634 -12.6821 6.34676 -2.69048
671 1 12.3431 -10.774 6.48947 -2.82169
672 1 10.5678 -10.8838 8.44496 -3.32965
673 1 -14.4139 -9.37398 5.11539 -2.75135
674 1 -12.6329 -7.75456 5.14701 -3.46081
675 1 -12.6947 -9.54293 7.01932 -3.28645
676 1 -14.5449 -7.759 7.06332 -3.08163
677 1 -10.8278 -9.68704 4.93909 -3.45728
678 1 -8.53378 -8.8915 5.66052 -3.49558
679 1 -8.59354 -10.7221 7.64279 -3.50373
680 1 -10.4844 -8.8076 7.58544 -3.51559
681 1 -6.75988 -10.7303 5.72328 -3.5091
682 1 -4.99411 -8.8983 5.72589 -3.53055
683 1 -4.97586 -10.6986 7.71544 -3.45677
684 1 -6.76947 -9.00088 7.57747 -3.49802
685 1 -3.19037 -10.6234 5.89098 -3.47698
686 1 -1.65911 -8.8337 6.03591 -3.44813
687 1 -1.43819 -10.5381 7.80787 -3.45185
688 1 -3.46027 -8.83565 7.77751 -3.49254
689 1 0.0651815 -10.5568 5.87083 -3.47226
690 1 1.93234 -10.2168 3.84486 -3.50048
691 1 2.55796 -10.8768 6.34739 -3.42139
692 1 0.04169 -8.64 7.87537 -3.50885
693 1 4.24309 -10.6446 4.31356 -3.48282
694 1 6.00298 -8.78172 4.33238 -3.52345
695 1 5.39618 -9.35473 8.42058 -3.46295
696 1 4.25874 -9.10229 6.29985 -3.4975
697 1 6.98169 -9.37108 6.5633 -3.46551
698 1 8.57503 -7.35487 6.65732 -3.53527
699 1 8.66942 -9.18093 8.53914 -3.45197
700 1 6.9013 -7.45731 8.5809 -3.4306
701 1 10.3678 -9.37063 6.55461 -3.47709
702 1 12.1674 -7.38123 6.50409 -3.45252
703 1 12.3879 -9.32655 8.5592 -3.25483
704 1 10.4736 -7.48046 8.41606 -3.52184
705 1 13.9835 -9.0694 6.56227 -2.69611
706 1 13.9215 -7.36822 8.51025 -3.09447
707 1 -16.3423 -4.32437 5.48552 -2.95621
708 1 -16.3294 -5.85299 7.35402 -2.67879
709 1 -14.579 -6.17966 5.21025 -3.33206
710 1 -12.2006 -5.31343 5.70897 -3.52243
711 1 -12.3375 -6.99189 7.71986 -3.45138
712 1 -14.0083 -5.31387 7.74123 -3.43013
713 1 -10.2749 -6.89649 5.71408 -3.46749
714 1 -8.51614 -5.19754 5.90572 -3.45489
715 1 -8.53738 -7.09151 7.7384 -3.49552
716 1 -10.5852 -5.38859 7.68409 -3.48911
717 1 -6.86937 -7.16035 5.79335 -3.47469
718 1 -5.1942 -5.41771 5.8395 -3.46793
719 1 -5.29085 -7.10366 7.75019 -3.5185
720 1 -6.97361 -5.24773 7.75934 -3.47811
721 1 -3.32403 -6.99249 5.86769 -3.50676
722 1 -1.66783 -6.76659 4.04307 -3.46777
723 1 -1.87646 -7.05873 8.0181 -3.43227
724 1 -3.53368 -5.2907 7.9192 -3.50083
725 1 0.265727 -8.50687 4.09679 -3.47066
726 1 1.88084 -6.60451 4.14246 -3.49177
727 1 1.79096 -8.6392 5.8962 -3.45534
728 1 0.0690038 -6.84372 5.94687 -3.5085
729 1 3.59267 -8.30056 3.74259 -3.43854
730 1 5.00564 -6.43996 3.95276 -3.47794
731 1 5.80419 -7.17422 6.37851 -3.51326
732 1 3.3763 -6.73032 6.11546 -3.48464
733 1 7.67888 -6.85135 4.37792 -3.44717
734 1 9.29628 -5.18303 4.46161 -3.40362
735 1 8.78337 -5.47771 8.48524 -3.46676
736 1 7.28661 -5.12037 6.61524 -3.42393
737 1 10.4276 -5.61113 6.59812 -3.47672
738 1 12.1299 -3.79897 6.80841 -3.4464
739 1 12.2313 -5.76262 8.59424 -3.45032
740 1 10.6138 -3.80744 8.74879 -3.49686