ITEM: TIMESTEP
50000
ITEM: NUMBER OF ATOMS
3804
ITEM: BOX BOUNDS ss ss pp
-1.7832377373855014e+01 1.7793836202122375e+01
-1.7841203179392625e+01 1.7911664565922880e+01
-1.0845000000000000e+00 4.4464500000000001e+01
ITEM: ATOMS id type x y z c_peratom
1 1 -5.02822 -15.8976 -1.2033 -3.00785
2 1 -6.71213 -15.875 0.673853 -2.76529
3 1 -1.8004 -16.101 -1.07169 -3.13644
4 1 -3.42001 -15.9303 0.913269 -3.03483
5 1 0.309429 -17.4905 -1.39219 -2.32972
6 1 1.90915 -15.9409 -1.01044 -3.06953
7 1 -0.0604408 -16.1186 0.801971 -3.22954
8 1 5.28594 -15.9011 -1.05771 -2.9913
9 1 3.61922 -16.1098 0.766986 -3.00744
10 1 7.12683 -16.0996 0.678854 -2.68598
11 1 -12.6019 -12.4827 44.4538 -2.78951
12 1 -10.7162 -13.92 -1.0529 -2.74847
13 1 -8.82396 -12.4484 -1.10479 -3.41111
14 1 -8.86326 -14.4023 0.870812 -3.0562
15 1 -10.7939 -12.471 0.979155 -3.31738
16 1 -7.21726 -14.3513 -1.00251 -3.29068
17 1 -5.39175 -12.5756 -1.18029 -3.51933
18 1 -5.018 -14.1387 0.696184 -3.40402
19 1 -7.04367 -12.6655 0.763159 -3.48772
20 1 -3.47405 -14.1066 44.2447 -3.40993
21 1 -1.81578 -12.4159 44.4798 -3.4279
22 1 -1.69866 -14.1446 0.763237 -3.44912
23 1 -3.28341 -12.4116 0.754443 -3.38898
24 1 -0.193882 -14.2779 -1.13395 -3.4744
25 1 1.75936 -12.6485 -1.16542 -3.51073
26 1 1.79967 -14.3374 0.817548 -3.47503
27 1 0.0546956 -12.3316 0.700794 -3.5024
28 1 3.65913 -14.2156 44.4082 -3.41079
29 1 5.40697 -12.3499 -1.17579 -3.51824
30 1 5.34948 -14.2773 0.684952 -3.45055
31 1 3.50742 -12.5656 0.676553 -3.49063
32 1 7.14424 -14.0602 -1.10875 -3.34809
33 1 9.05149 -12.5396 -1.13032 -3.42822
34 1 8.90633 -14.291 0.820719 -3.11764
35 1 7.12232 -12.4283 0.634282 -3.45309
36 1 10.9653 -13.9445 -1.12139 -2.65212
37 1 12.4452 -12.102 -1.06844 -2.84099
38 1 10.7382 -12.4338 0.800291 -3.32728
39 1 -14.0924 -10.6153 44.3324 -2.70712
40 1 -12.4356 -8.89001 -0.930837 -3.44897
41 1 -12.5616 -10.7736 0.915986 -3.32478
42 1 -14.2172 -8.9413 1.11297 -3.10393
43 1 -10.74 -10.8905 -0.903727 -3.51796
44 1 -8.95325 -9.03297 44.6143 -3.5354
45 1 -8.86917 -10.7649 0.925086 -3.53597
46 1 -10.7592 -9.01274 0.850758 -3.52446
47 1 -7.09879 -10.7509 -1.04104 -3.47554
48 1 -5.41719 -8.96348 -1.2206 -3.47092
49 1 -5.32637 -10.8083 0.818289 -3.53217
50 1 -7.03009 -9.09525 0.836482 -3.48379
51 1 -3.54276 -10.5016 44.3341 -3.43307
52 1 -1.66535 -8.83747 44.5251 -3.47951
53 1 -1.77751 -10.5697 0.637697 -3.46515
54 1 -3.58512 -8.8243 0.83402 -3.47988
55 1 0.0206274 -10.6748 -1.10521 -3.51384
56 1 1.78015 -8.92874 -1.17353 -3.48907
57 1 1.81855 -10.7566 0.807312 -3.4516
58 1 0.0690583 -8.9499 0.814738 -3.52064
59 1 3.46355 -10.7834 -1.0172 -3.48784
60 1 5.3776 -9.21879 -1.20835 -3.47692
61 1 5.51746 -10.6922 0.866553 -3.44003
62 1 3.48463 -8.97962 0.768386 -3.48883
63 1 7.23007 -10.6967 44.2676 -3.50452
64 1 8.93009 -8.79564 -1.11384 -3.52732
65 1 8.96887 -10.7018 0.745582 -3.53542
66 1 7.19181 -8.83767 0.646842 -3.49717
67 1 10.6524 -10.6329 -1.14354 -3.47825
68 1 12.3656 -8.79784 -1.08262 -3.46328
69 1 12.4167 -10.6072 0.808835 -3.34736
70 1 10.6907 -8.77097 0.841218 -3.52658
71 1 14.2151 -10.3908 -1.1106 -2.71824
72 1 14.2805 -8.72603 0.956167 -3.08117
73 1 -16.1795 -5.44274 44.5898 -2.92943
74 1 -15.8712 -7.00866 1.03197 -2.73036
75 1 -14.2514 -7.20167 44.6545 -3.367
76 1 -12.4209 -5.28353 44.6389 -3.4816
77 1 -12.4309 -7.04587 0.818477 -3.49445
78 1 -14.2743 -5.35396 0.924021 -3.43035
79 1 -10.6627 -7.10363 44.6033 -3.48757
80 1 -8.96275 -5.42651 44.6603 -3.48205
81 1 -8.93192 -7.24886 0.896685 -3.52912
82 1 -10.7579 -5.22064 0.885709 -3.46332
83 1 -7.12924 -7.19134 -1.1275 -3.4907
84 1 -5.40486 -5.54038 -1.10791 -3.4916
85 1 -5.39175 -7.28258 0.760536 -3.46646
86 1 -7.16007 -5.43951 0.892786 -3.5305
87 1 -3.50964 -7.22443 44.4461 -3.52532
88 1 -1.86796 -5.403 -1.09901 -3.49862
89 1 -1.7413 -7.28848 0.89289 -3.45862
90 1 -3.66385 -5.54867 0.858796 -3.50816
91 1 0.0718724 -7.05969 -0.989308 -3.52217
92 1 1.9088 -5.26434 -0.965261 -3.48648
93 1 1.98505 -7.08948 0.647841 -3.46093
94 1 -0.0321633 -5.40437 0.831211 -3.49009
95 1 3.68819 -7.19175 -1.05782 -3.50974
96 1 5.39348 -5.32104 -1.10023 -3.52482
97 1 5.31969 -7.11619 0.776636 -3.51157
98 1 3.56648 -5.32594 0.925331 -3.47369
99 1 7.07678 -7.10423 44.3885 -3.4822
100 1 8.80494 -5.45028 -1.09201 -3.48852
101 1 8.82297 -7.02213 0.781281 -3.48002
102 1 7.03862 -5.32032 0.784784 -3.48023
103 1 10.7172 -7.08502 -1.27485 -3.46149
104 1 12.4769 -5.29743 -1.06127 -3.51361
105 1 12.5229 -7.03975 0.824438 -3.4949
106 1 10.6509 -5.35796 0.831924 -3.51894
107 1 14.2608 -7.15393 44.488 -3.37693
108 1 15.9944 -5.18597 44.6646 -2.96923
109 1 16.0029 -6.98018 0.907529 -2.7091
110 1 14.2027 -5.26833 0.994661 -3.45551
111 1 -16.1239 -2.03449 44.4927 -3.14229
112 1 -16.3066 -3.63145 0.835444 -2.95245
113 1 -14.2179 -3.67915 44.6773 -3.46365
114 1 -12.4727 -1.9155 44.632 -3.48621
115 1 -12.4391 -3.49831 1.03151 -3.51449
116 1 -14.3942 -1.95151 0.913913 -3.46931
117 1 -10.7464 -3.53235 44.4031 -3.47164
118 1 -8.83919 -1.72929 -1.04705 -3.44094
119 1 -9.01242 -3.50082 0.969879 -3.49252
120 1 -10.5693 -1.71325 0.814581 -3.45416
121 1 -7.25153 -3.66528 -0.937105 -3.50861
122 1 -5.4451 -1.89894 44.5174 -3.50462
123 1 -5.21932 -3.61255 0.818398 -3.49972
124 1 -7.11559 -1.94195 0.829889 -3.50628
125 1 -3.60514 -3.59446 44.5051 -3.51028
126 1 -1.7989 -1.77503 44.4795 -3.51702
127 1 -1.71475 -3.49345 0.809674 -3.50782
128 1 -3.54042 -1.75672 0.887827 -3.50951
129 1 0.0471864 -3.54568 44.4149 -3.54983
130 1 1.89248 -1.82238 -1.11586 -3.44739
131 1 1.78724 -3.61429 0.82784 -3.51151
132 1 -0.0261066 -1.74377 0.920612 -3.47805
133 1 3.64646 -3.50578 -0.966591 -3.47775
134 1 5.38382 -1.78843 -1.17672 -3.51549
135 1 5.34668 -3.57041 0.812386 -3.46924
136 1 3.64742 -1.83253 0.799656 -3.516
137 1 7.13205 -3.44803 44.5158 -3.4951
138 1 8.90645 -1.85314 -1.07417 -3.43523
139 1 8.85891 -3.64223 0.837385 -3.52635
140 1 7.05953 -1.83916 0.960368 -3.50528
141 1 10.6667 -3.54745 44.5386 -3.51582
142 1 12.4945 -1.83214 -1.05229 -3.47539
143 1 12.4178 -3.5494 0.978256 -3.50887
144 1 10.5549 -1.88967 0.782653 -3.46821
145 1 14.1017 -3.53498 44.4829 -3.41294
146 1 15.8657 -1.76492 44.3924 -3.16869
147 1 16.1027 -3.49762 0.916897 -3.00083
148 1 14.2783 -1.92017 0.840785 -3.48386
149 1 -17.4706 0.136886 -0.935644 -2.36657
150 1 -15.9881 1.88554 44.4546 -3.07433
151 1 -16.1009 -0.238012 0.860159 -3.15117
152 1 -14.3707 -0.200959 44.6667 -3.50448
153 1 -12.4458 1.64138 44.5429 -3.52689
154 1 -12.5976 -0.181265 0.948086 -3.50339
155 1 -14.2218 1.59272 0.876084 -3.4691
156 1 -10.7081 -0.224843 44.4989 -3.46873
157 1 -8.90556 1.64233 44.5468 -3.52662
158 1 -8.83302 -0.142893 0.981714 -3.47656
159 1 -10.6484 1.51952 0.786397 -3.53748
160 1 -7.22677 -0.0761769 44.5819 -3.43035
161 1 -5.35245 1.604 44.4286 -3.51615
162 1 -5.36826 -0.0857831 0.931924 -3.50258
163 1 -7.07326 1.63897 0.709297 -3.47374
164 1 -3.60144 -0.150164 -1.00488 -3.50616
165 1 -1.63358 1.64502 44.5411 -3.52828
166 1 -1.77051 -0.0503403 0.844986 -3.4947
167 1 -3.53662 1.59036 0.841071 -3.50574
168 1 0.173546 -0.200197 -0.943802 -3.48651
169 1 1.90092 1.60702 44.4959 -3.49418
170 1 1.87826 -0.0713124 0.77382 -3.46761
171 1 0.12464 1.61007 0.90314 -3.51051
172 1 3.49471 -0.132002 -1.22913 -3.43218
173 1 5.31374 1.68948 44.4593 -3.50303
174 1 5.37969 -0.0421333 0.823227 -3.48698
175 1 3.6645 1.56929 0.758989 -3.47197
176 1 7.15271 -0.00179902 44.433 -3.52483
177 1 8.8719 1.85318 -1.04864 -3.52204
178 1 8.77411 -0.0109491 0.794086 -3.5335
179 1 7.07228 1.88122 0.810897 -3.51846
180 1 10.5738 -0.173349 44.4951 -3.50276
181 1 12.3952 1.86023 -1.07511 -3.5078
182 1 12.3101 -0.221722 0.823932 -3.50874
183 1 10.6065 1.69841 0.704934 -3.50069
184 1 14.1835 -0.0886885 44.4055 -3.44045
185 1 15.7872 1.61109 -0.940727 -3.10607
186 1 16.1292 -0.231268 0.914754 -3.2124
187 1 14.1076 1.58833 0.828212 -3.48142
188 1 17.6088 0.060322 44.5004 -2.31809
189 1 -16.084 5.28479 44.5416 -2.97643
190 1 -15.864 3.51278 0.658133 -3.03175
191 1 -14.1234 3.54295 -1.16531 -3.4657
192 1 -12.3382 5.29162 -1.18094 -3.49068
193 1 -12.4456 3.56315 0.95537 -3.46295
194 1 -14.1976 5.35155 0.775178 -3.46063
195 1 -10.7781 3.4009 44.5417 -3.48936
196 1 -8.85143 5.04187 44.5658 -3.46679
197 1 -8.93937 3.40816 0.968749 -3.53093
198 1 -10.7118 5.16915 0.777654 -3.47168
199 1 -7.14023 3.47845 44.5287 -3.45037
200 1 -5.24637 5.27497 44.5197 -3.50987
201 1 -5.3011 3.38404 0.816287 -3.4907
202 1 -6.9909 5.05013 0.789989 -3.4269
203 1 -3.58464 3.41153 44.3991 -3.49822
204 1 -1.86769 5.27006 -1.03159 -3.52601
205 1 -1.75911 3.4516 0.758275 -3.50942
206 1 -3.55258 5.25015 0.922583 -3.52193
207 1 0.118107 3.34491 44.6114 -3.49693
208 1 1.82706 5.24871 44.4861 -3.5113
209 1 1.98956 3.38119 0.791767 -3.53414
210 1 0.0403854 5.23086 0.726943 -3.50771
211 1 3.60817 3.51936 44.4042 -3.50012
212 1 5.27468 5.37227 44.5528 -3.51487
213 1 5.20469 3.58314 0.876744 -3.50357
214 1 3.55531 5.3468 0.921176 -3.4707
215 1 7.01125 3.62162 -0.936239 -3.47552
216 1 8.91922 5.26204 44.3695 -3.52746
217 1 8.84069 3.59519 0.890454 -3.48036
218 1 7.1847 5.35188 0.778525 -3.4855
219 1 10.6264 3.52204 44.4044 -3.46961
220 1 12.4115 5.39551 44.5102 -3.50516
221 1 12.2687 3.48963 0.961453 -3.48062
222 1 10.7784 5.44859 0.728226 -3.49485
223 1 14.2909 3.53357 44.4812 -3.44314
224 1 16.1228 5.39094 44.5246 -2.91232
225 1 15.7025 3.50996 0.958215 -2.97424
226 1 14.1906 5.28375 0.785445 -3.45183
227 1 -15.9088 7.12536 0.731242 -2.73413
228 1 -14.2585 7.12436 -1.16097 -3.39042
229 1 -12.2801 8.95284 -1.10447 -3.46317
230 1 -12.3878 7.09526 0.654233 -3.52455
231 1 -14.2533 9.01161 0.591124 -3.11743
232 1 -10.6577 7.07311 44.4363 -3.48873
233 1 -8.81899 8.72626 -1.00205 -3.50035
234 1 -8.96923 6.89048 0.964328 -3.52441
235 1 -10.6582 8.84852 0.734045 -3.51576
236 1 -7.10646 6.96854 44.5689 -3.51296
237 1 -5.38173 8.84327 44.5289 -3.51569
238 1 -5.40099 6.90756 0.840949 -3.48534
239 1 -7.13173 8.87604 0.806835 -3.47957
240 1 -3.54577 7.12259 44.4453 -3.48319
241 1 -1.72371 8.82258 44.5554 -3.48741
242 1 -1.70882 7.10818 0.872192 -3.50309
243 1 -3.55019 8.65661 0.792208 -3.48515
244 1 0.000230221 6.99275 44.5401 -3.52048
245 1 1.81385 8.93957 44.4926 -3.5097
246 1 1.72401 7.00661 0.911059 -3.47282
247 1 0.0509646 8.86933 0.783908 -3.52545
248 1 3.48349 7.11286 44.5785 -3.51769
249 1 5.26598 8.85113 44.6234 -3.50228
250 1 5.37018 7.03414 0.820954 -3.50939
251 1 3.65007 8.92897 0.914698 -3.52526
252 1 7.12062 7.20183 -1.06241 -3.5092
253 1 8.8462 9.00361 44.5274 -3.4539
254 1 8.91421 7.15497 0.724598 -3.50877
255 1 7.16415 8.81472 0.93217 -3.49714
256 1 10.6166 7.21097 -1.17063 -3.51708
257 1 12.5461 8.89742 44.3898 -3.46079
258 1 12.4426 7.27275 0.772878 -3.49993
259 1 10.6098 8.95552 0.761979 -3.51029
260 1 14.4938 7.16927 44.5251 -3.32039
261 1 16.1073 6.87678 0.94406 -2.70779
262 1 14.4958 8.71552 0.906862 -3.05295
263 1 -13.9936 10.7063 44.324 -2.71859
264 1 -12.3117 12.5268 -0.951213 -2.86399
265 1 -12.4653 10.7079 0.783662 -3.32977
266 1 -10.4904 10.7093 -1.0536 -3.51751
267 1 -8.81177 12.4498 44.5704 -3.41727
268 1 -8.83249 10.6197 0.785787 -3.49867
269 1 -10.6884 12.4807 0.993867 -3.32708
270 1 -7.13018 10.6578 -1.0096 -3.50451
271 1 -5.39755 12.4755 44.4596 -3.53072
272 1 -5.41059 10.5905 0.812377 -3.51628
273 1 -7.10487 12.4673 0.866204 -3.52632
274 1 -3.56934 10.4799 -1.11485 -3.50829
275 1 -2.02869 12.5281 -1.03919 -3.47934
276 1 -1.97031 10.5245 0.897234 -3.47991
277 1 -3.56109 12.4579 0.761713 -3.49598
278 1 -0.0393808 10.7245 44.5133 -3.5072
279 1 1.62578 12.5203 44.5529 -3.48788
280 1 1.6182 10.8323 0.763551 -3.45767
281 1 -0.166368 12.448 0.913791 -3.47861
282 1 3.51961 10.7071 44.5172 -3.51917
283 1 5.33383 12.5815 -1.04827 -3.50841
284 1 5.3088 10.8603 0.746634 -3.51894
285 1 3.44655 12.5348 0.802312 -3.51728
286 1 7.08548 10.764 44.3915 -3.47417
287 1 8.9632 12.4427 44.4507 -3.47004
288 1 8.82015 10.6242 0.69056 -3.47144
289 1 7.18522 12.6731 0.860037 -3.4556
290 1 10.7317 10.6025 -1.12135 -3.49736
291 1 12.4899 12.2926 44.4177 -2.85247
292 1 12.5088 10.5492 0.741079 -3.29627
293 1 10.8678 12.2407 0.794651 -3.3177
294 1 14.3822 10.4713 -0.810214 -2.68785
295 1 -10.4782 14.1482 44.595 -2.73269
296 1 -8.98579 14.2362 0.977083 -3.08374
297 1 -7.16627 14.2888 44.5573 -3.37472
298 1 -5.39036 16.2772 44.5095 -2.95711
299 1 -5.3299 14.3047 0.815276 -3.4793
300 1 -6.98503 16.3323 0.919508 -2.5455
301 1 -3.65402 14.4253 44.4514 -3.44135
302 1 -1.89055 16.2381 44.4873 -3.11261
303 1 -1.84337 14.3541 0.822901 -3.45008
304 1 -3.59672 16.0453 0.744358 -3.05798
305 1 -0.147646 14.2459 44.284 -3.51855
306 1 1.74259 16.0289 44.4947 -3.11963
307 1 1.55558 14.2554 0.821641 -3.48968
308 1 -0.148319 16.0006 0.7293 -3.20943
309 1 3.40394 14.3317 -0.896085 -3.41676
310 1 5.35237 16.0474 44.5164 -2.96216
311 1 5.30726 14.2907 0.80393 -3.45127
312 1 3.40175 16.0438 0.882657 -3.01463
313 1 7.21931 14.3593 -0.880596 -3.34232
314 1 9.06159 14.2548 0.960095 -3.08684
315 1 6.98665 16.0159 1.05575 -2.70693
316 1 10.772 14.0073 -1.01419 -2.7175
317 1 -0.0537881 17.7394 44.5365 -2.29448
318 1 -5.10082 -16.0193 2.69066 -3.00053
319 1 -6.93971 -16.057 4.56611 -2.71009
320 1 -1.74741 -15.9777 2.71644 -3.11773
321 1 -3.50229 -16.0916 4.55694 -3.04379
322 1 -0.0339418 -17.5894 2.74067 -2.35987
323 1 1.90857 -15.947 2.75618 -3.14739
324 1 -0.0466099 -16.1346 4.668 -3.19975
325 1 5.43894 -16.195 2.59309 -2.95392
326 1 3.79057 -16.0943 4.54832 -3.03336
327 1 7.00724 -16.1225 4.60193 -2.72009
328 1 -12.4521 -12.3415 2.98435 -2.81848
329 1 -10.748 -14.2727 2.77405 -2.68654
330 1 -8.919 -12.6212 2.71593 -3.45419
331 1 -8.91218 -14.3645 4.57905 -3.12602
332 1 -10.7176 -12.6714 4.67119 -3.32529
333 1 -7.22784 -14.3166 2.58482 -3.27193
334 1 -5.36984 -12.7281 2.62032 -3.46375
335 1 -5.22543 -14.2866 4.6282 -3.44127
336 1 -7.08913 -12.6785 4.74921 -3.48344
337 1 -3.41081 -14.0872 2.8668 -3.47349
338 1 -1.6035 -12.2759 2.69919 -3.46145
339 1 -1.63877 -14.3259 4.74257 -3.47541
340 1 -3.36127 -12.5304 4.66905 -3.39211
341 1 0.0501883 -14.3408 2.70171 -3.49252
342 1 1.84319 -12.5672 2.74651 -3.52281
343 1 1.74829 -14.3147 4.54893 -3.47146
344 1 0.0776504 -12.3097 4.60901 -3.52918
345 1 3.76043 -14.1321 2.6743 -3.49108
346 1 5.49619 -12.3915 2.69566 -3.47098
347 1 5.5131 -14.3319 4.55945 -3.41899
348 1 3.66816 -12.4498 4.63598 -3.52085
349 1 7.09421 -14.4632 2.5657 -3.35344
350 1 8.7369 -12.4869 2.66377 -3.43949
351 1 8.71881 -14.4287 4.47947 -3.11011
352 1 7.11532 -12.4872 4.57539 -3.50645
353 1 10.5254 -14.0809 2.79433 -2.75069
354 1 12.486 -12.4263 2.77595 -2.852
355 1 10.4827 -12.4013 4.47673 -3.32272
356 1 -14.0946 -10.7346 2.87333 -2.67913
357 1 -12.2969 -8.93259 2.89593 -3.48966
358 1 -12.289 -10.6631 4.64125 -3.28662
359 1 -14.3025 -8.72686 4.72069 -3.10306
360 1 -10.6475 -10.7464 2.79281 -3.45624
361 1 -8.96929 -9.03118 2.7617 -3.49104
362 1 -8.96342 -10.8237 4.59368 -3.51941
363 1 -10.6764 -8.95265 4.78859 -3.45757
364 1 -7.16291 -10.8272 2.83498 -3.53689
365 1 -5.29533 -9.13585 2.82169 -3.49911
366 1 -5.32815 -10.9633 4.59092 -3.53063
367 1 -7.04307 -9.05281 4.73265 -3.51892
368 1 -3.56192 -10.9112 2.80171 -3.48679
369 1 -1.84409 -8.96698 2.70568 -3.56245
370 1 -1.88475 -10.7274 4.63448 -3.42672
371 1 -3.64359 -8.90736 4.61948 -3.46306
372 1 0.120903 -10.69 2.63839 -3.46277
373 1 1.81724 -8.87191 2.64231 -3.46013
374 1 1.9878 -10.5855 4.47736 -3.50576
375 1 -0.00279058 -8.98826 4.60902 -3.54578
376 1 3.61726 -10.6998 2.63653 -3.54176
377 1 5.46294 -8.96198 2.71808 -3.51542
378 1 5.33332 -10.5815 4.70554 -3.48957
379 1 3.66118 -8.81767 4.59202 -3.47487
380 1 7.15955 -10.7506 2.54313 -3.37106
381 1 8.79152 -8.86954 2.60091 -3.51249
382 1 8.93287 -10.4876 4.61785 -3.48962
383 1 7.19006 -8.90769 4.59251 -3.46538
384 1 10.5834 -10.7404 2.6429 -3.50488
385 1 12.3428 -8.89854 2.65653 -3.4704
386 1 12.2568 -10.7139 4.44585 -3.31138
387 1 10.6576 -8.80663 4.53645 -3.51288
388 1 14.1319 -10.6214 2.87478 -2.70693
389 1 14.0108 -8.81784 4.58638 -3.12257
390 1 -16.0497 -5.19095 2.7005 -2.98343
391 1 -15.9406 -6.78377 4.59531 -2.77506
392 1 -14.1404 -7.15004 2.8314 -3.3736
393 1 -12.3072 -5.45342 2.75572 -3.49123
394 1 -12.422 -7.14149 4.7828 -3.48281
395 1 -14.0158 -5.32884 4.68912 -3.41349
396 1 -10.61 -7.1466 2.72119 -3.48324
397 1 -8.814 -5.42412 2.73895 -3.51241
398 1 -8.8134 -7.36473 4.50889 -3.47359
399 1 -10.5918 -5.46542 4.74149 -3.48506
400 1 -7.03707 -7.36708 2.68701 -3.5377
401 1 -5.29721 -5.3811 2.71794 -3.49018
402 1 -5.33328 -7.16966 4.63135 -3.51035
403 1 -7.11137 -5.45751 4.63183 -3.4667
404 1 -3.63288 -7.20673 2.71432 -3.49391
405 1 -1.78936 -5.48727 2.59965 -3.51967
406 1 -1.97043 -7.18275 4.65079 -3.50244
407 1 -3.58516 -5.37113 4.53451 -3.47704
408 1 0.058429 -7.20975 2.62164 -3.50863
409 1 1.86498 -5.44431 2.83456 -3.47862
410 1 1.76923 -7.18136 4.64203 -3.49803
411 1 -0.116033 -5.44289 4.58723 -3.50589
412 1 3.58366 -7.2938 2.63104 -3.49693
413 1 5.37382 -5.44072 2.60361 -3.5031
414 1 5.38049 -7.01291 4.6445 -3.48234
415 1 3.50344 -5.38312 4.56043 -3.49974
416 1 7.10796 -7.19871 2.60871 -3.45615
417 1 8.88145 -5.40466 2.81079 -3.52169
418 1 8.84105 -7.23741 4.8325 -3.43828
419 1 7.15597 -5.52755 4.67784 -3.45275
420 1 10.6532 -7.03026 2.67168 -3.47793
421 1 12.4119 -5.3348 2.69126 -3.4964
422 1 12.535 -6.94309 4.57145 -3.4948
423 1 10.5749 -5.3655 4.68421 -3.54467
424 1 14.3152 -7.24297 2.77776 -3.27021
425 1 15.8886 -5.18658 2.78078 -2.97918
426 1 15.7669 -6.75036 4.59879 -2.78229
427 1 14.0575 -5.03558 4.80863 -3.34257
428 1 -16.0803 -2.02352 2.89054 -3.15999
429 1 -16.0557 -3.78286 4.73504 -3.07148
430 1 -14.12 -3.66787 2.99357 -3.42951
431 1 -12.4346 -1.83192 2.85861 -3.4876
432 1 -12.3275 -3.59186 4.6638 -3.4724
433 1 -14.2047 -1.97431 4.78436 -3.4866
434 1 -10.7023 -3.53359 2.90502 -3.48429
435 1 -8.86062 -1.73557 2.85009 -3.5077
436 1 -8.96612 -3.82356 4.66707 -3.44745
437 1 -10.5398 -1.71799 4.69915 -3.49612
438 1 -7.0489 -3.70437 2.83566 -3.47214
439 1 -5.37885 -1.9084 2.85784 -3.53325
440 1 -5.46198 -3.75321 4.75777 -3.47184
441 1 -7.20041 -1.86859 4.62797 -3.52663
442 1 -3.51618 -3.61945 2.70027 -3.48947
443 1 -1.78625 -1.92541 2.69766 -3.48867
444 1 -1.76967 -3.76673 4.52984 -3.4571
445 1 -3.40869 -1.8321 4.62122 -3.50428
446 1 0.112327 -3.76971 2.59967 -3.49971
447 1 1.84987 -1.73185 2.64661 -3.49502
448 1 1.67134 -3.59716 4.65909 -3.45792
449 1 0.0803885 -1.77694 4.5297 -3.50009
450 1 3.48954 -3.57087 2.68909 -3.51306
451 1 5.30618 -1.84767 2.7561 -3.48789
452 1 5.33654 -3.52962 4.68991 -3.49119
453 1 3.31486 -1.8703 4.54917 -3.50224
454 1 7.18916 -3.47531 2.96401 -3.42469
455 1 8.83308 -1.86536 2.76043 -3.45228
456 1 8.84527 -3.58167 4.68887 -3.49265
457 1 7.077 -1.78665 4.80159 -3.46374
458 1 10.6599 -3.53752 2.72103 -3.53433
459 1 12.4519 -1.82668 2.81971 -3.48674
460 1 12.3296 -3.47959 4.69534 -3.47214
461 1 10.5195 -1.78132 4.6668 -3.52495
462 1 14.211 -3.58771 2.86811 -3.42825
463 1 16.0644 -1.75334 2.83902 -3.12906
464 1 16.0787 -3.5927 4.78453 -3.03276
465 1 14.157 -1.79575 4.70647 -3.48066
466 1 -17.451 0.0481811 2.92762 -2.56818
467 1 -16.0904 2.03558 2.59878 -3.17166
468 1 -16.2009 -0.264079 4.81795 -3.13194
469 1 -14.4634 -0.0997764 2.75686 -3.54548
470 1 -12.5677 1.62504 2.67444 -3.47974
471 1 -12.4786 -0.0115309 4.58481 -3.51928
472 1 -14.4504 1.66608 4.50996 -3.53292
473 1 -10.8023 0.0152066 2.76271 -3.45106
474 1 -9.06508 1.65722 2.82103 -3.4583
475 1 -8.98465 0.0211625 4.62137 -3.4229
476 1 -10.7313 1.66586 4.62239 -3.45521
477 1 -7.0633 0.023576 2.83824 -3.51008
478 1 -5.37126 1.65672 2.62795 -3.4131
479 1 -5.22591 -0.117918 4.7423 -3.51623
480 1 -7.21443 1.67598 4.80754 -3.47817
481 1 -3.5488 0.024379 2.84034 -3.53444
482 1 -1.67483 1.78865 2.64204 -3.4925
483 1 -1.71979 -0.0162308 4.53043 -3.49434
484 1 -3.44582 1.67618 4.82678 -3.45754
485 1 -0.029318 -0.0993265 2.78432 -3.47901
486 1 1.89781 1.77951 2.73163 -3.52074
487 1 1.73055 0.0574568 4.69177 -3.49733
488 1 0.011399 1.87534 4.65371 -3.48162
489 1 3.7668 -0.0426063 2.69636 -3.48015
490 1 5.48792 1.77834 2.79711 -3.47287
491 1 5.34287 -0.179174 4.60681 -3.50962
492 1 3.58773 1.71743 4.59076 -3.51938
493 1 7.09244 0.0165296 2.74886 -3.5118
494 1 8.84686 1.77045 2.59787 -3.52355
495 1 8.7608 -0.0653068 4.57859 -3.47623
496 1 7.02521 1.7711 4.6377 -3.46446
497 1 10.5369 -0.093207 2.65009 -3.52471
498 1 12.2891 1.66515 2.66136 -3.50738
499 1 12.4496 -0.0823327 4.52367 -3.46682
500 1 10.5103 1.60482 4.82327 -3.49129
501 1 14.1519 -0.0670717 2.73944 -3.51006
502 1 16.0973 1.80445 2.60519 -3.06391
503 1 15.8147 0.0244935 4.71859 -3.27024
504 1 13.9996 1.73295 4.62509 -3.47032
505 1 17.6474 0.0100887 3.11881 -2.31835
506 1 -16.0982 5.38208 2.50179 -3.00455
507 1 -16.1247 3.73211 4.40287 -3.08366
508 1 -14.1839 3.57416 2.55514 -3.4426
509 1 -12.4847 5.41918 2.64805 -3.48284
510 1 -12.4397 3.3489 4.48086 -3.50068
511 1 -14.2594 5.19664 4.50891 -3.39884
512 1 -10.7329 3.44283 2.7456 -3.52544
513 1 -8.70631 5.15373 2.70782 -3.49825
514 1 -8.89368 3.55699 4.66423 -3.50293
515 1 -10.6807 5.31716 4.51925 -3.49348
516 1 -7.20545 3.2543 2.89769 -3.47242
517 1 -5.66025 5.1962 2.84447 -3.46542
518 1 -5.24786 3.34911 4.61184 -3.51678
519 1 -7.13217 5.17636 4.66656 -3.44792
520 1 -3.54869 3.42894 2.81238 -3.50928
521 1 -1.64885 5.314 2.80086 -3.48027
522 1 -1.79304 3.45237 4.6095 -3.47655
523 1 -3.52073 5.16997 4.5897 -3.47765
524 1 0.136282 3.40442 2.65146 -3.46231
525 1 1.76481 5.18391 2.8009 -3.50457
526 1 1.85507 3.40579 4.82849 -3.47662
527 1 0.0899235 5.37826 4.64715 -3.50392
528 1 3.66447 3.59012 2.6322 -3.44675
529 1 5.29784 5.40669 2.77526 -3.49023
530 1 5.38064 3.59471 4.60028 -3.50992
531 1 3.4976 5.23993 4.59343 -3.51557
532 1 7.05284 3.63892 2.70664 -3.51112
533 1 8.82822 5.32744 2.57224 -3.46174
534 1 8.68674 3.4729 4.58514 -3.51882
535 1 7.07274 5.46577 4.61965 -3.49457
536 1 10.5977 3.55635 2.72504 -3.48652
537 1 12.4065 5.34511 2.79326 -3.50849
538 1 12.2173 3.48325 4.62405 -3.49448
539 1 10.523 5.28732 4.67097 -3.50323
540 1 14.0999 3.44036 2.73915 -3.44308
541 1 15.8982 5.39059 2.97249 -2.95457
542 1 15.8972 3.34744 4.73105 -3.03755
543 1 14.1015 5.04187 4.50951 -3.39389
544 1 -15.9561 7.11534 4.26352 -2.71476
545 1 -14.2879 7.18139 2.43548 -3.32174
546 1 -12.5181 8.84883 2.4973 -3.45369
547 1 -12.3639 7.22087 4.41155 -3.46608
548 1 -14.3672 8.89822 4.67779 -3.01488
549 1 -10.7501 7.02151 2.65883 -3.46497
550 1 -8.8553 8.7999 2.63859 -3.49545
551 1 -8.96561 6.94313 4.53819 -3.47656
552 1 -10.6196 8.94208 4.466 -3.51859
553 1 -7.2267 7.06641 2.87053 -3.41673
554 1 -5.30872 8.66131 2.68274 -3.51287
555 1 -5.31512 7.20704 4.63491 -3.5005
556 1 -7.16074 8.85845 4.64801 -3.50015
557 1 -3.47671 6.90564 2.90761 -3.45928
558 1 -1.69903 8.86484 2.69602 -3.52276
559 1 -1.70526 7.02381 4.51673 -3.47445
560 1 -3.42893 8.86328 4.63362 -3.46836
561 1 0.0733265 7.00771 2.60418 -3.46402
562 1 1.83621 9.04118 2.68901 -3.51692
563 1 1.74929 7.14963 4.55739 -3.52794
564 1 -0.0526002 8.96072 4.59461 -3.5032
565 1 3.55381 7.10496 2.68935 -3.51007
566 1 5.40011 8.94415 2.7489 -3.50762
567 1 5.06965 7.15627 4.57067 -3.48686
568 1 3.43838 9.02777 4.44561 -3.48723
569 1 7.10922 7.09854 2.8251 -3.49572
570 1 8.9179 8.88703 2.70194 -3.50945
571 1 8.88257 7.06073 4.63599 -3.48057
572 1 6.97807 8.85263 4.54291 -3.49108
573 1 10.542 7.08922 2.68354 -3.50218
574 1 12.388 8.82676 2.66519 -3.43194
575 1 12.4773 7.00066 4.54628 -3.5157
576 1 10.6501 8.90971 4.40223 -3.50178
577 1 14.2962 7.16847 2.79534 -3.3093
578 1 15.6188 7.01543 4.82693 -2.77653
579 1 14.1122 8.89058 4.72468 -3.12276
580 1 -14.3141 10.3734 2.86763 -2.68462
581 1 -12.5098 12.3259 2.6793 -2.8568
582 1 -12.4015 10.6637 4.44898 -3.34262
583 1 -10.509 10.6354 2.59683 -3.50029
584 1 -8.75046 12.454 2.73906 -3.48725
585 1 -8.77268 10.6663 4.52303 -3.52144
586 1 -10.665 12.3931 4.45 -3.29628
587 1 -7.00849 10.6019 2.687 -3.52047
588 1 -5.20768 12.4065 2.74344 -3.47206
589 1 -5.35229 10.5406 4.4638 -3.51292
590 1 -6.90972 12.4254 4.52839 -3.50997
591 1 -3.58996 10.5164 2.61111 -3.49591
592 1 -1.88869 12.4388 2.62968 -3.51438
593 1 -1.86567 10.6062 4.50869 -3.46134
594 1 -3.60118 12.4019 4.55668 -3.51386
595 1 -0.0447831 10.7792 2.69186 -3.47272
596 1 1.66155 12.4344 2.7046 -3.49868
597 1 1.7055 10.7672 4.69855 -3.45546
598 1 -0.132948 12.5029 4.60384 -3.52958
599 1 3.64891 10.7649 2.66523 -3.49243
600 1 5.29566 12.4988 2.75674 -3.45773
601 1 5.3359 10.7329 4.69156 -3.52912
602 1 3.46026 12.4845 4.50774 -3.48655
603 1 7.08241 10.844 2.73274 -3.52437
604 1 8.98844 12.4025 2.73385 -3.45053
605 1 8.79931 10.5973 4.63849 -3.52406
606 1 7.08384 12.5656 4.73441 -3.4492
607 1 10.7749 10.6612 2.66827 -3.48143
608 1 12.4571 12.5193 2.90008 -2.81367
609 1 12.3989 10.7867 4.77151 -3.299
610 1 10.5735 12.4255 4.49867 -3.31605
611 1 13.9803 10.6328 2.74865 -2.76141
612 1 -10.5876 14.1016 2.8991 -2.72611
613 1 -8.69525 14.3049 4.57198 -3.1502
614 1 -6.92793 14.3071 2.78377 -3.3745
615 1 -5.23705 16.1898 2.75619 -2.9966
616 1 -5.30882 14.3159 4.56769 -3.44546
617 1 -6.97043 16.1402 4.52057 -2.70493
618 1 -3.63799 14.1727 2.60868 -3.46387
619 1 -1.9963 16.0673 2.76262 -3.12164
620 1 -1.73581 14.3352 4.627 -3.47226
621 1 -3.60408 16.1154 4.54876 -3.01288
622 1 -0.161298 14.4182 2.64733 -3.52116
623 1 1.83225 16.1185 2.7208 -3.10487
624 1 1.67905 14.2012 4.57995 -3.49607
625 1 0.0917169 16.0501 4.7014 -3.19131
626 1 3.38902 14.1639 2.79823 -3.45924
627 1 5.20309 15.961 2.73382 -3.02928
628 1 5.2753 14.1659 4.52519 -3.42377
629 1 3.57976 15.9991 4.58292 -3.06212
630 1 7.03121 14.1777 2.73118 -3.35146
631 1 8.77028 14.2569 4.48589 -3.11044
632 1 6.88402 15.9325 4.66468 -2.766
633 1 10.684 14.3024 2.8026 -2.65073
634 1 -0.0804052 17.5503 2.92304 -2.37074
635 1 -5.242 -15.9873 6.41746 -3.00329
636 1 -6.71004 -16.0589 8.42532 -2.74085
637 1 -1.77085 -16.0904 6.57955 -3.10523
638 1 -3.41739 -15.8562 8.29631 -3.04154
639 1 -0.0225882 -17.7121 6.47457 -2.34246
640 1 1.9319 -16.1189 6.31463 -3.12505
641 1 0.0264551 -16.0302 8.27554 -3.15774
642 1 5.40851 -16.2176 6.4534 -2.98266
643 1 3.69958 -16.1869 8.31112 -2.95518
644 1 7.12027 -15.9376 8.3101 -2.72745
645 1 -12.2063 -12.5836 6.71181 -2.81324
646 1 -10.5566 -14.4384 6.63601 -2.70017
647 1 -8.78262 -12.5921 6.54213 -3.43658
648 1 -8.7752 -14.589 8.46489 -3.1028
649 1 -10.5782 -12.7272 8.36354 -3.28489
650 1 -7.15299 -14.495 6.53043 -3.33188
651 1 -5.30596 -12.6861 6.53762 -3.5217
652 1 -5.2859 -14.1505 8.58087 -3.42266
653 1 -7.17276 -12.5286 8.46774 -3.50283
654 1 -3.45379 -14.2005 6.52325 -3.43259
655 1 -1.68831 -12.4663 6.44703 -3.49344
656 1 -1.79515 -14.0764 8.37999 -3.41196
657 1 -3.23006 -12.2905 8.40634 -3.40747
658 1 0.0844092 -14.2983 6.51991 -3.52106
659 1 1.77622 -12.3821 6.46056 -3.49689
660 1 2.01469 -14.5728 8.28794 -3.3626
661 1 0.131957 -12.5144 8.41447 -3.54274
662 1 3.61907 -14.4443 6.46154 -3.41399
663 1 5.39027 -12.5527 6.38052 -3.52702
664 1 5.23732 -14.3153 8.26603 -3.43217
665 1 3.5461 -12.5369 8.29262 -3.51876
666 1 7.22031 -14.3857 6.35198 -3.36011
667 1 8.84026 -12.3892 6.35536 -3.45331
668 1 8.92079 -14.2831 8.33132 -3.06158
669 1 7.10452 -12.6752 8.22981 -3.50995
670 1 10.3449 -14.227 6.43903 -2.76036
671 1 12.282 -12.6946 6.18595 -2.83265
672 1 10.7126 -12.5863 8.2177 -3.28612
673 1 -14.1575 -10.5082 6.5316 -2.67073
674 1 -12.3901 -8.8457 6.57764 -3.39208
675 1 -12.5363 -10.6764 8.45305 -3.28855
676 1 -14.3792 -9.10834 8.64128 -3.02488
677 1 -10.3756 -10.8394 6.49036 -3.41651
678 1 -8.851 -8.90555 6.46618 -3.48246
679 1 -8.85631 -10.7731 8.39507 -3.45376
680 1 -10.5887 -9.13414 8.31265 -3.47142
681 1 -7.11878 -10.8506 6.47449 -3.52751
682 1 -5.24206 -9.1127 6.49093 -3.44231
683 1 -5.34557 -10.8097 8.34003 -3.49447
684 1 -7.01393 -9.05439 8.39165 -3.51914
685 1 -3.56312 -10.6948 6.35332 -3.44673
686 1 -1.84041 -8.90045 6.51994 -3.43351
687 1 -1.63738 -10.6023 8.35808 -3.46074
688 1 -3.61549 -9.14481 8.54656 -3.49198
689 1 0.087741 -10.6706 6.60105 -3.49218
690 1 1.79877 -8.93137 6.52065 -3.52717
691 1 1.93731 -10.7022 8.44738 -3.4885
692 1 0.0610238 -8.89491 8.52249 -3.47698
693 1 3.59873 -10.6331 6.56156 -3.50076
694 1 5.37288 -8.92767 6.44991 -3.47265
695 1 5.33715 -10.6862 8.30342 -3.5201
696 1 3.54286 -8.83305 8.36144 -3.51599
697 1 7.12215 -10.631 6.56893 -3.46135
698 1 9.11211 -8.88596 6.70952 -3.47165
699 1 8.88856 -10.7743 8.29579 -3.53395
700 1 7.0787 -8.97202 8.24822 -3.47031
701 1 10.7635 -10.7755 6.51508 -3.48141
702 1 12.4718 -8.8709 6.57469 -3.34823
703 1 12.2439 -10.7129 8.3331 -3.25385
704 1 10.7098 -8.7799 8.4541 -3.46137
705 1 13.7862 -10.7246 6.49985 -2.74907
706 1 14.171 -8.99961 8.27587 -3.10457
707 1 -15.9543 -5.39219 6.70439 -2.99719
708 1 -15.7444 -7.07489 8.60284 -2.76237
709 1 -14.2405 -7.08386 6.71112 -3.34217
710 1 -12.5638 -5.24802 6.67922 -3.44169
711 1 -12.5109 -7.43607 8.48871 -3.46538
712 1 -14.0562 -5.2476 8.57215 -3.45224
713 1 -10.6501 -7.12772 6.67956 -3.522
714 1 -8.78501 -5.36314 6.6652 -3.46052
715 1 -8.80767 -7.19878 8.49051 -3.50162
716 1 -10.7089 -5.29424 8.48478 -3.51382
717 1 -7.14704 -7.19016 6.59411 -3.49871
718 1 -5.18072 -5.35083 6.71378 -3.47923
719 1 -5.33673 -7.29794 8.68847 -3.46897
720 1 -7.07903 -5.50051 8.59601 -3.47759
721 1 -3.68123 -7.21921 6.64 -3.50515
722 1 -1.85453 -5.35587 6.60675 -3.49683
723 1 -1.83227 -7.29629 8.40285 -3.49916
724 1 -3.42992 -5.41663 8.58202 -3.49418
725 1 -0.2103 -7.32985 6.45617 -3.44751
726 1 1.62473 -5.43628 6.52206 -3.52259
727 1 1.64715 -7.09138 8.3805 -3.50405
728 1 -0.21961 -5.43706 8.31219 -3.47631
729 1 3.49198 -7.10228 6.34912 -3.49608
730 1 5.27385 -5.20203 6.50701 -3.52414
731 1 5.22578 -7.09582 8.25715 -3.5156
732 1 3.41737 -5.33195 8.30644 -3.5099
733 1 7.10679 -7.05049 6.62139 -3.50082
734 1 8.89972 -5.43671 6.64173 -3.49351
735 1 8.85337 -7.1301 8.52059 -3.47415
736 1 7.13504 -5.33817 8.51825 -3.51495
737 1 10.7399 -7.15995 6.56135 -3.48137
738 1 12.4697 -5.29634 6.588 -3.51675
739 1 12.5707 -7.09315 8.41431 -3.51037
740 1 10.6123 -5.3091 8.50326 -3.54762
741 1 14.2516 -7.16199 6.53935 -3.33138
742 1 15.8825 -5.26691 6.50854 -3.01416