ITEM: TIMESTEP
32000
ITEM: NUMBER OF ATOMS
3804
ITEM: BOX BOUNDS ss ss pp
-1.7810819444137902e+01 1.7887158688775457e+01
-1.8016355220138205e+01 1.7914950763415508e+01
-6.9408000000000003e-01 4.4074080000000002e+01
ITEM: ATOMS id type x y z c_peratom
1 1 -5.48201 -16.1368 44.1534 -3.00422
2 1 -7.19872 -16.2429 1.23454 -2.68269
3 1 -1.87414 -16.2984 44.178 -3.08793
4 1 -3.70646 -16.1749 1.25173 -3.02524
5 1 -0.0623483 -17.7788 44.2862 -2.40938
6 1 1.94226 -16.4516 44.038 -3.10195
7 1 0.231264 -16.1255 1.25448 -3.19953
8 1 5.54075 -16.375 44.1839 -2.94633
9 1 3.46144 -16.3694 1.17282 -3.01671
10 1 7.23465 -16.2344 1.2104 -2.67856
11 1 -12.3157 -12.6121 44.1936 -2.84971
12 1 -10.5261 -14.3885 44.2295 -2.71608
13 1 -8.88956 -12.5939 44.1685 -3.46732
14 1 -8.92625 -14.3659 1.29931 -3.09571
15 1 -10.7086 -12.7339 1.23948 -3.28751
16 1 -7.37137 -14.4882 44.0979 -3.35999
17 1 -5.373 -12.5943 44.1733 -3.52117
18 1 -5.34501 -14.4061 1.23476 -3.44843
19 1 -7.19618 -12.7178 1.30752 -3.49043
20 1 -3.68419 -14.3541 44.0956 -3.43457
21 1 -1.71502 -12.7842 44.2428 -3.45068
22 1 -1.73778 -14.4935 1.06122 -3.44611
23 1 -3.60049 -12.5818 1.24068 -3.52702
24 1 0.25339 -14.4893 44.1721 -3.4813
25 1 1.75688 -12.5892 -0.65444 -3.47815
26 1 1.85324 -14.44 1.22295 -3.41105
27 1 -0.000656109 -12.6658 1.08645 -3.48226
28 1 3.50496 -14.4747 43.9934 -3.46196
29 1 5.41051 -12.8026 -0.553359 -3.48189
30 1 5.25592 -14.5632 1.11159 -3.46924
31 1 3.47469 -12.6361 0.953283 -3.46322
32 1 7.24189 -14.5122 -0.697319 -3.36658
33 1 8.88551 -12.6515 -0.781844 -3.45276
34 1 9.06373 -14.3393 1.28032 -3.09749
35 1 7.17264 -12.787 1.1187 -3.48172
36 1 10.7381 -14.2338 -0.713632 -2.71872
37 1 12.577 -12.4715 -0.462876 -2.82989
38 1 10.7916 -12.5384 1.05827 -3.27792
39 1 -14.0001 -10.9147 44.2353 -2.71546
40 1 -12.5235 -8.85625 44.1403 -3.47249
41 1 -12.2664 -10.7373 1.08133 -3.29075
42 1 -14.3065 -8.83813 1.15672 -3.12329
43 1 -10.5775 -10.6735 44.0575 -3.47436
44 1 -8.80119 -8.94902 43.9914 -3.45203
45 1 -8.93409 -10.7942 1.13691 -3.56012
46 1 -10.6827 -8.9712 1.28346 -3.4285
47 1 -7.10976 -10.7397 44.1115 -3.51192
48 1 -5.28438 -9.11075 -0.77683 -3.50134
49 1 -5.40462 -10.8749 1.23357 -3.51536
50 1 -7.00005 -9.00279 1.22243 -3.5045
51 1 -3.60208 -10.7988 44.1603 -3.49971
52 1 -1.89719 -8.97628 44.126 -3.4882
53 1 -1.82035 -10.8318 1.1564 -3.51807
54 1 -3.53283 -9.06926 1.23094 -3.50415
55 1 -0.0793041 -10.7336 43.964 -3.50258
56 1 1.75186 -9.05047 44.0693 -3.50078
57 1 1.68307 -10.6705 1.21721 -3.4956
58 1 -0.157292 -8.9942 1.21866 -3.51305
59 1 3.63408 -10.9251 43.9704 -3.45585
60 1 5.27213 -9.06568 -0.53388 -3.48
61 1 5.42506 -10.7977 1.22973 -3.47643
62 1 3.4942 -8.88857 1.13315 -3.45261
63 1 7.12057 -10.9324 44.0691 -3.53472
64 1 8.75188 -8.99714 44.0783 -3.47772
65 1 8.84078 -10.6698 1.10852 -3.48485
66 1 7.19018 -9.00029 1.1426 -3.44424
67 1 10.6719 -10.6431 -0.560934 -3.51463
68 1 12.4468 -8.72452 44.1675 -3.51564
69 1 12.5409 -10.6327 1.17728 -3.34671
70 1 10.6389 -8.73416 1.11673 -3.4803
71 1 14.3865 -10.3501 -0.427299 -2.68869
72 1 14.3166 -8.78336 1.32858 -3.102
73 1 -16.1319 -5.3433 44.0775 -2.96189
74 1 -16.0236 -7.09954 1.13837 -2.75025
75 1 -14.4665 -7.15025 43.9499 -3.25335
76 1 -12.4467 -5.45687 43.8361 -3.49925
77 1 -12.5842 -7.08524 1.0232 -3.48465
78 1 -14.2867 -5.42101 1.13274 -3.4657
79 1 -10.5829 -7.2879 -0.771706 -3.48996
80 1 -8.92976 -5.47609 43.9544 -3.51197
81 1 -8.95208 -7.30115 0.946391 -3.43472
82 1 -10.6094 -5.45357 1.12305 -3.49734
83 1 -7.13327 -7.17821 -0.849454 -3.50679
84 1 -5.33274 -5.46453 -0.705031 -3.52206
85 1 -5.26157 -7.31001 1.11712 -3.51381
86 1 -7.12662 -5.57161 1.05717 -3.51135
87 1 -3.57023 -7.30354 -0.838831 -3.47902
88 1 -1.78225 -5.53192 44.0025 -3.49651
89 1 -1.91794 -7.12253 1.12781 -3.52205
90 1 -3.57238 -5.36148 1.11754 -3.50371
91 1 -0.146072 -7.24405 -0.667705 -3.50899
92 1 1.82175 -5.43695 44.096 -3.50425
93 1 1.66634 -7.28604 1.0377 -3.49433
94 1 -0.0195808 -5.39456 1.19068 -3.5292
95 1 3.61634 -7.33705 44.0242 -3.4989
96 1 5.53165 -5.43458 -0.667661 -3.46243
97 1 5.4495 -7.1935 1.13165 -3.54227
98 1 3.50048 -5.46059 1.02639 -3.51871
99 1 7.13144 -7.14666 -0.726939 -3.47233
100 1 8.93737 -5.20253 -0.808267 -3.45699
101 1 8.78204 -7.13352 1.2465 -3.47257
102 1 7.21133 -5.27088 1.19204 -3.48694
103 1 10.4585 -7.09067 -0.529381 -3.46181
104 1 12.3932 -5.4234 -0.558777 -3.47484
105 1 12.5238 -7.03493 1.29187 -3.47617
106 1 10.6762 -5.30139 1.47678 -3.50964
107 1 14.5007 -7.17816 44.17 -3.32912
108 1 16.1094 -5.37386 -0.674117 -2.98824
109 1 16.0635 -6.86661 1.46671 -2.74539
110 1 14.2415 -5.29914 1.23118 -3.45695
111 1 -16.0006 -1.71212 44.2533 -3.13802
112 1 -16.1226 -3.65803 1.02951 -2.99797
113 1 -14.2897 -3.60273 44.0714 -3.47631
114 1 -12.554 -1.78243 44.0033 -3.4956
115 1 -12.3613 -3.71132 1.18548 -3.49809
116 1 -14.2199 -2.00714 1.14987 -3.44691
117 1 -10.7715 -3.67067 -0.726866 -3.5057
118 1 -8.87405 -1.8071 44.0543 -3.52096
119 1 -8.87684 -3.77543 0.981021 -3.49236
120 1 -10.6667 -1.82153 1.19522 -3.5307
121 1 -7.0471 -3.57137 -0.717722 -3.50374
122 1 -5.44742 -1.74928 43.9765 -3.49489
123 1 -5.31357 -3.60625 1.04859 -3.51863
124 1 -7.32976 -1.71148 1.19316 -3.46694
125 1 -3.48112 -3.64355 -0.747753 -3.50581
126 1 -1.67156 -1.95309 43.9863 -3.45716
127 1 -1.73959 -3.68402 1.0218 -3.5159
128 1 -3.57027 -1.76836 1.16249 -3.50806
129 1 0.00660505 -3.78275 43.9015 -3.47902
130 1 1.89087 -1.93215 -0.660623 -3.50384
131 1 1.80242 -3.56191 1.22455 -3.45462
132 1 0.0452292 -1.96851 1.04387 -3.50207
133 1 3.64565 -3.74422 43.9931 -3.51468
134 1 5.30015 -1.80349 -0.853063 -3.4796
135 1 5.42892 -3.62106 1.15346 -3.5146
136 1 3.55836 -1.90997 1.07949 -3.49964
137 1 7.12904 -3.54909 -0.783137 -3.48351
138 1 8.88448 -1.83404 -0.618887 -3.48104
139 1 8.91483 -3.53844 1.21913 -3.51384
140 1 7.22306 -1.82539 1.25913 -3.48758
141 1 10.9617 -3.5801 -0.697583 -3.46425
142 1 12.6007 -1.90758 44.2042 -3.40174
143 1 12.4526 -3.58959 1.46907 -3.47453
144 1 10.8008 -1.8193 1.29917 -3.50974
145 1 14.1449 -3.61375 -0.525841 -3.43268
146 1 16.0991 -2.16448 44.3172 -3.12757
147 1 16.1265 -3.61394 1.45019 -3.01433
148 1 14.2701 -1.89819 1.36078 -3.50577
149 1 -17.5701 0.117111 44.0913 -2.38488
150 1 -15.9211 1.83955 -0.691017 -3.14335
151 1 -16.1131 0.103411 1.18641 -3.19797
152 1 -14.3268 0.026115 44.034 -3.48127
153 1 -12.4191 1.88598 -0.728414 -3.48666
154 1 -12.5608 0.0791974 1.16773 -3.52747
155 1 -14.099 1.9875 1.11703 -3.44322
156 1 -10.7421 0.00463776 44.0286 -3.54404
157 1 -8.76512 1.91627 -0.675462 -3.49957
158 1 -8.99209 0.08078 1.09652 -3.50791
159 1 -10.6537 1.81921 1.09965 -3.4913
160 1 -7.11764 0.105122 44.1339 -3.50257
161 1 -5.26859 1.72802 44.1144 -3.5349
162 1 -5.42386 -0.11217 1.21261 -3.47441
163 1 -7.0688 1.79434 1.19287 -3.51618
164 1 -3.49771 -0.0728039 44.1644 -3.47429
165 1 -1.87495 1.69091 43.9596 -3.5133
166 1 -1.7539 -0.120543 1.12253 -3.50821
167 1 -3.60049 1.61253 1.18332 -3.50992
168 1 0.0135273 -0.0400838 44.1617 -3.5163
169 1 1.6273 1.83119 -0.649322 -3.50723
170 1 1.76337 -0.0346811 1.18324 -3.53566
171 1 -0.0537292 1.7606 1.23927 -3.48899
172 1 3.48742 0.0114793 43.9775 -3.5249
173 1 5.24644 1.75915 44.1127 -3.48787
174 1 5.19106 0.0774765 1.12745 -3.47633
175 1 3.45857 1.76634 1.13764 -3.5039
176 1 7.07196 -0.0357252 -0.585293 -3.51752
177 1 8.99813 1.65938 -0.668559 -3.5142
178 1 9.00691 -0.111301 1.12954 -3.50243
179 1 7.12919 1.76962 1.07066 -3.51308
180 1 10.7592 -0.0923893 44.0776 -3.52073
181 1 12.6395 1.74362 44.2644 -3.50768
182 1 12.5028 -0.116476 1.29153 -3.52444
183 1 10.6707 1.70053 1.28479 -3.49774
184 1 14.3212 -0.0497329 44.231 -3.49155
185 1 16.215 1.79733 44.1629 -3.13108
186 1 16.056 -0.0342998 1.15252 -3.21875
187 1 14.449 1.76405 1.29008 -3.44246
188 1 17.7611 -0.196877 44.2299 -2.32907
189 1 -15.8475 5.33839 43.9627 -3.01962
190 1 -15.9899 3.74018 1.14903 -3.06636
191 1 -14.2032 3.59568 -0.679164 -3.42401
192 1 -12.4154 5.45146 -0.777993 -3.51963
193 1 -12.3735 3.61067 1.08543 -3.46104
194 1 -14.1317 5.37167 1.05942 -3.44447
195 1 -10.6433 3.52274 44.0517 -3.4862
196 1 -8.81382 5.23265 -0.875237 -3.49315
197 1 -8.88574 3.59406 1.07126 -3.52348
198 1 -10.5964 5.48333 0.971554 -3.53491
199 1 -6.91398 3.61512 44.0611 -3.52748
200 1 -5.30629 5.49187 44.0351 -3.52782
201 1 -5.34313 3.61663 1.19246 -3.51252
202 1 -7.03067 5.46841 1.16609 -3.51907
203 1 -3.46184 3.62985 44.0324 -3.52075
204 1 -1.77942 5.43282 43.8449 -3.43881
205 1 -1.78495 3.59976 1.07692 -3.47655
206 1 -3.35775 5.37271 1.18072 -3.49544
207 1 -0.0735926 3.66744 44.0197 -3.49239
208 1 1.77781 5.38007 -0.642124 -3.5155
209 1 1.58327 3.6429 1.06892 -3.49344
210 1 -0.177924 5.44134 0.970303 -3.50409
211 1 3.59778 3.60915 43.947 -3.5042
212 1 5.31237 5.34485 -0.620165 -3.51294
213 1 5.37734 3.54354 1.18627 -3.51404
214 1 3.50132 5.31686 1.17753 -3.50643
215 1 7.04287 3.55956 44.0262 -3.52179
216 1 8.80385 5.32558 -0.745357 -3.53836
217 1 8.8915 3.53041 1.07274 -3.52477
218 1 7.07015 5.42263 1.24073 -3.47934
219 1 10.8431 3.35775 44.0616 -3.47333
220 1 12.5679 5.28152 -0.661116 -3.53185
221 1 12.6008 3.55605 1.19644 -3.51182
222 1 10.7147 5.3419 0.938956 -3.50859
223 1 14.4806 3.41975 44.0882 -3.43561
224 1 16.1808 5.34777 -0.804813 -2.9908
225 1 16.1246 3.68099 1.02434 -3.03483
226 1 14.339 5.42658 1.08869 -3.44697
227 1 -15.8336 7.04473 1.054 -2.76668
228 1 -14.0212 7.17429 43.9435 -3.3378
229 1 -12.3289 8.93648 44.125 -3.48514
230 1 -12.4451 7.21455 1.19711 -3.4734
231 1 -14.1768 8.95231 1.15247 -3.12375
232 1 -10.4613 7.13609 43.8915 -3.49174
233 1 -8.83026 9.01871 43.9916 -3.51816
234 1 -8.77431 7.25736 1.1266 -3.45309
235 1 -10.6798 8.95632 1.21237 -3.48272
236 1 -7.1668 7.15016 44.0071 -3.52848
237 1 -5.37029 8.93868 44.1671 -3.52808
238 1 -5.25676 7.28219 1.20249 -3.51948
239 1 -7.14028 8.96842 1.1453 -3.48987
240 1 -3.49365 7.23709 44.0563 -3.50134
241 1 -1.78182 8.97347 44.1441 -3.45747
242 1 -1.87909 7.29857 1.12827 -3.45796
243 1 -3.57408 9.07034 1.25732 -3.47953
244 1 0.0889831 7.22568 44.0536 -3.53966
245 1 1.8291 9.07724 44.0662 -3.47937
246 1 1.75139 7.24935 1.1781 -3.50294
247 1 -0.157409 9.00745 1.13815 -3.49996
248 1 3.51193 7.21713 -0.566853 -3.50061
249 1 5.29707 8.9264 -0.708455 -3.50527
250 1 5.23854 7.15666 1.15916 -3.5136
251 1 3.45353 8.87403 1.2155 -3.45031
252 1 6.99074 7.20309 -0.766521 -3.50698
253 1 8.79688 8.87241 -0.707389 -3.51133
254 1 8.9242 7.0565 1.13658 -3.49451
255 1 7.10043 8.88985 1.24962 -3.52218
256 1 10.7108 7.11212 -0.735114 -3.45821
257 1 12.3933 8.84999 -0.708365 -3.45636
258 1 12.4837 7.17554 1.17163 -3.51195
259 1 10.5823 8.92091 1.11319 -3.5367
260 1 14.2962 7.20839 -0.787198 -3.39121
261 1 16.0799 7.0793 1.15103 -2.71463
262 1 14.2146 8.99027 1.11753 -3.12034
263 1 -14.2652 10.7669 -0.802619 -2.6122
264 1 -12.5135 12.4994 44.1142 -2.82873
265 1 -12.3907 10.877 1.20003 -3.31897
266 1 -10.7516 10.8772 44.1572 -3.45078
267 1 -8.96952 12.6148 44.0458 -3.46304
268 1 -9.03427 10.9775 1.13292 -3.50926
269 1 -10.6741 12.7172 1.25756 -3.28158
270 1 -7.04099 10.9114 44.1517 -3.52546
271 1 -5.25332 12.6867 44.1342 -3.48441
272 1 -5.34808 10.9005 1.15731 -3.52908
273 1 -7.12517 12.6948 1.24181 -3.46146
274 1 -3.45777 10.7812 44.0674 -3.53147
275 1 -1.69046 12.6843 44.0693 -3.50726
276 1 -1.82773 10.863 1.2381 -3.50782
277 1 -3.51955 12.7119 1.20021 -3.50186
278 1 0.00708921 10.7531 -0.620201 -3.51769
279 1 1.82255 12.5194 44.0225 -3.49628
280 1 1.83801 10.7535 1.29604 -3.49184
281 1 -0.0339774 12.6187 1.11617 -3.5396
282 1 3.55031 10.6988 44.0625 -3.47742
283 1 5.56205 12.5635 -0.639159 -3.53246
284 1 5.3753 10.7026 1.10222 -3.52845
285 1 3.48253 12.6035 1.24354 -3.50236
286 1 7.17 10.6731 -0.638016 -3.49326
287 1 8.77518 12.7343 -0.648448 -3.44869
288 1 8.8244 10.6579 1.26457 -3.49792
289 1 7.12724 12.5878 1.22393 -3.48509
290 1 10.5744 10.8022 -0.755939 -3.48966
291 1 12.4121 12.3582 -0.632428 -2.85547
292 1 12.347 10.6489 1.21376 -3.35725
293 1 10.5566 12.4818 1.28413 -3.35706
294 1 14.2431 10.5865 -0.650834 -2.70652
295 1 -10.546 14.4015 44.3994 -2.61865
296 1 -8.82843 14.4176 1.27343 -3.12348
297 1 -7.0322 14.2842 -0.609911 -3.37844
298 1 -5.31852 16.119 -0.516381 -3.01495
299 1 -5.39666 14.287 1.411 -3.43289
300 1 -7.06042 16.2001 1.2187 -2.69868
301 1 -3.56672 14.4171 -0.650743 -3.46357
302 1 -1.80841 16.2817 -0.643867 -3.15422
303 1 -1.81056 14.4579 1.17943 -3.47618
304 1 -3.51129 16.2928 1.29362 -3.02274
305 1 -0.0700538 14.5649 44.1063 -3.45569
306 1 1.76729 16.0192 -0.545829 -3.07774
307 1 1.73087 14.4739 1.21034 -3.46873
308 1 -0.111089 16.288 1.18956 -3.22885
309 1 3.5587 14.4025 -0.67281 -3.40648
310 1 5.26716 15.9754 -0.800431 -2.97468
311 1 5.30708 14.416 1.1752 -3.45894
312 1 3.76561 16.4427 1.08615 -2.91935
313 1 7.23791 14.569 44.1434 -3.27427
314 1 8.79946 14.4711 1.33429 -3.08732
315 1 6.99731 16.1796 1.10613 -2.68189
316 1 10.7683 14.1417 -0.541844 -2.71079
317 1 0.153747 17.9028 -0.629333 -2.31593
318 1 -5.32068 -16.1099 3.15858 -2.99214
319 1 -7.10218 -16.2804 4.93003 -2.70666
320 1 -1.73749 -16.1068 2.95997 -3.1512
321 1 -3.56415 -16.2051 4.84504 -3.00156
322 1 -0.0292694 -17.825 2.83679 -2.38868
323 1 1.88929 -16.2521 3.07407 -3.14096
324 1 0.23153 -16.447 4.83464 -3.16883
325 1 5.26237 -16.1707 3.00836 -3.02221
326 1 3.69761 -16.194 5.01031 -3.03233
327 1 6.97025 -15.9382 4.84811 -2.76059
328 1 -12.3423 -12.6173 3.19127 -2.88984
329 1 -10.5278 -14.2761 3.19732 -2.7498
330 1 -8.94695 -12.5708 3.09319 -3.41396
331 1 -8.87784 -14.4158 4.97403 -3.11464
332 1 -10.387 -12.4044 4.94355 -3.324
333 1 -7.15351 -14.48 3.11027 -3.38522
334 1 -5.40398 -12.6472 3.13871 -3.53224
335 1 -5.32625 -14.4873 5.10204 -3.42937
336 1 -7.14721 -12.4876 4.95126 -3.5255
337 1 -3.60544 -14.4603 2.97967 -3.41968
338 1 -1.63264 -12.805 3.04381 -3.53632
339 1 -1.67171 -14.7568 4.92673 -3.40599
340 1 -3.39201 -12.6687 4.81638 -3.51674
341 1 0.165819 -14.4576 3.18353 -3.49522
342 1 1.7356 -12.4685 3.02174 -3.49861
343 1 1.83732 -14.4954 4.98341 -3.47181
344 1 0.174508 -12.658 5.06496 -3.50385
345 1 3.47035 -14.3125 3.00945 -3.49412
346 1 5.27797 -12.5745 2.7787 -3.50756
347 1 5.23868 -14.3271 4.79972 -3.44565
348 1 3.51586 -12.5125 4.84997 -3.53096
349 1 7.01654 -14.4367 2.91772 -3.35036
350 1 8.87661 -12.562 2.98581 -3.44514
351 1 8.95376 -14.2748 4.66974 -3.11499
352 1 6.96878 -12.4868 4.67385 -3.49073
353 1 10.7896 -14.1297 2.85017 -2.72243
354 1 12.5919 -12.5698 2.92478 -2.84809
355 1 10.777 -12.6147 4.79892 -3.30774
356 1 -13.9336 -10.719 2.88318 -2.78936
357 1 -12.3679 -8.7381 2.96935 -3.47911
358 1 -12.3006 -10.6451 4.86584 -3.33382
359 1 -14.2915 -9.01371 4.79157 -3.11173
360 1 -10.6527 -10.7317 3.10248 -3.50491
361 1 -8.94713 -8.84867 2.93088 -3.50954
362 1 -8.86704 -10.5414 4.86307 -3.48575
363 1 -10.6437 -8.88852 4.9151 -3.51228
364 1 -7.07633 -10.6609 3.13896 -3.53442
365 1 -5.26523 -8.91847 3.05397 -3.51141
366 1 -5.18065 -10.9003 4.99568 -3.50127
367 1 -6.94003 -8.8278 4.89459 -3.51986
368 1 -3.56692 -10.8155 3.03071 -3.51559
369 1 -1.83137 -9.01529 3.08121 -3.527
370 1 -1.67995 -10.8193 4.82842 -3.52542
371 1 -3.54326 -9.04369 5.02103 -3.47945
372 1 0.0621255 -10.7717 3.0414 -3.46332
373 1 1.7053 -8.94993 2.90036 -3.45605
374 1 1.77017 -10.7541 4.89465 -3.49877
375 1 0.0668394 -9.01479 4.8724 -3.51046
376 1 3.5516 -10.7342 2.95327 -3.53249
377 1 5.35131 -8.92524 2.97701 -3.52569
378 1 5.30281 -10.8157 4.72925 -3.48099
379 1 3.56038 -9.04835 4.9334 -3.51354
380 1 7.13282 -10.7402 2.94774 -3.49196
381 1 8.9071 -8.90704 3.02874 -3.5058
382 1 8.90794 -10.6797 4.78294 -3.5438
383 1 7.07934 -8.95118 4.91641 -3.46713
384 1 10.7899 -10.89 2.903 -3.53018
385 1 12.3996 -8.79233 2.92066 -3.40926
386 1 12.5567 -10.7614 4.8661 -3.2631
387 1 10.7666 -8.95151 4.83516 -3.51
388 1 14.0808 -10.5697 3.20374 -2.73342
389 1 14.6079 -9.07466 5.17107 -3.00997
390 1 -16.0376 -5.19597 2.95338 -3.03501
391 1 -16.1532 -6.86655 4.77305 -2.66278
392 1 -14.4183 -7.1805 3.083 -3.35635
393 1 -12.5874 -5.42572 2.96156 -3.50375
394 1 -12.5297 -7.12569 4.89736 -3.53272
395 1 -14.3377 -5.37244 4.75273 -3.37903
396 1 -10.6612 -7.03099 3.04688 -3.47983
397 1 -8.82412 -5.31785 2.9416 -3.50189
398 1 -8.82934 -7.14198 4.90988 -3.5151
399 1 -10.6664 -5.4265 4.88935 -3.52367
400 1 -7.01737 -7.16147 2.89119 -3.45185
401 1 -5.37426 -5.50603 2.9952 -3.47653
402 1 -5.1259 -7.18981 4.88817 -3.48845
403 1 -7.10627 -5.45656 4.78479 -3.50502
404 1 -3.46792 -7.10344 3.13928 -3.49144
405 1 -1.70012 -5.32816 2.99097 -3.52506
406 1 -1.76936 -7.1385 4.9148 -3.53427
407 1 -3.43968 -5.24707 4.9029 -3.5124
408 1 -0.00927046 -7.21979 2.94956 -3.5284
409 1 1.73752 -5.4006 3.00175 -3.53407
410 1 1.84813 -7.31124 4.92928 -3.50104
411 1 0.0966338 -5.44226 4.9115 -3.53748
412 1 3.44989 -7.24285 2.89292 -3.5033
413 1 5.26772 -5.50924 3.04964 -3.53505
414 1 5.31821 -7.35059 4.79937 -3.46534
415 1 3.63636 -5.50031 4.88637 -3.51908
416 1 7.19525 -7.18063 3.07328 -3.48313
417 1 8.82364 -5.36253 3.09905 -3.48092
418 1 8.79761 -7.31963 4.95577 -3.48956
419 1 7.1485 -5.47133 4.97904 -3.51787
420 1 10.6126 -7.12772 3.16064 -3.50552
421 1 12.4883 -5.21999 3.33173 -3.50605
422 1 12.5797 -7.15377 4.86779 -3.52119
423 1 10.6413 -5.3387 5.03105 -3.52411
424 1 14.4292 -7.04869 3.24974 -3.32385
425 1 16.1385 -5.24029 3.34897 -2.99813
426 1 16.108 -7.08362 4.97226 -2.73921
427 1 14.2209 -5.2016 5.23558 -3.48212
428 1 -16.0148 -1.9234 2.98613 -3.16576
429 1 -16.0889 -3.61481 5.02102 -3.03051
430 1 -14.1457 -3.56221 3.07208 -3.42168
431 1 -12.425 -1.76926 2.95393 -3.5112
432 1 -12.5488 -3.65989 4.92496 -3.51152
433 1 -14.2641 -1.77001 4.80769 -3.46384
434 1 -10.7289 -3.64775 3.05992 -3.53269
435 1 -8.96393 -1.83382 2.96491 -3.50766
436 1 -8.83324 -3.68987 4.87838 -3.51185
437 1 -10.5887 -1.71507 4.84724 -3.51144
438 1 -7.04482 -3.66044 2.84971 -3.51833
439 1 -5.41835 -1.68068 3.01735 -3.48357
440 1 -5.34301 -3.6333 4.76644 -3.5254
441 1 -7.15703 -1.80822 4.84106 -3.52582
442 1 -3.52845 -3.522 3.08565 -3.47268
443 1 -1.87807 -1.88378 3.02821 -3.45225
444 1 -1.62344 -3.5641 4.78139 -3.46551
445 1 -3.46225 -1.85935 4.8818 -3.50068
446 1 0.0401187 -3.52928 2.99423 -3.49995
447 1 1.78168 -1.83182 3.06015 -3.49214
448 1 1.93561 -3.50974 4.79059 -3.49216
449 1 0.0025673 -1.77834 4.88948 -3.48278
450 1 3.52316 -3.66628 2.98198 -3.48826
451 1 5.31297 -1.87932 3.04491 -3.53003
452 1 5.40773 -3.53968 4.98338 -3.51107
453 1 3.59556 -1.66161 4.87604 -3.50608
454 1 7.16295 -3.60316 3.12171 -3.5046
455 1 8.85791 -1.7613 3.16793 -3.48469
456 1 8.83499 -3.62042 4.94759 -3.49553
457 1 7.15792 -1.77766 4.83208 -3.49138
458 1 10.6259 -3.53018 3.21262 -3.50307
459 1 12.524 -1.92693 3.30127 -3.46988
460 1 12.4132 -3.5902 5.20809 -3.50526
461 1 10.6085 -1.74877 4.87736 -3.47894
462 1 14.2985 -3.56308 3.21118 -3.45294
463 1 16.2421 -1.85007 3.34649 -3.12419
464 1 16.3225 -3.48435 5.13755 -2.9662
465 1 14.2611 -1.83779 5.00999 -3.49374
466 1 -17.6146 0.028674 3.12375 -2.54133
467 1 -16.0824 1.99194 3.04949 -3.20261
468 1 -15.8963 0.0181352 4.92564 -3.19537
469 1 -14.375 0.165368 3.0495 -3.49365
470 1 -12.4955 1.87997 3.09152 -3.51972
471 1 -12.5619 0.027506 4.88894 -3.53659
472 1 -14.4149 1.86724 4.8608 -3.47842
473 1 -10.7541 0.115545 2.94723 -3.50546
474 1 -8.95298 1.79287 2.99568 -3.49648
475 1 -8.92811 0.084522 4.68223 -3.42895
476 1 -10.7717 1.77672 4.83998 -3.51913
477 1 -7.20116 -0.0448022 2.94128 -3.47825
478 1 -5.32999 1.69904 3.05792 -3.53948
479 1 -5.42593 -0.00202691 4.95913 -3.49976
480 1 -7.27047 1.69741 4.891 -3.47536
481 1 -3.58995 -0.0704056 2.97232 -3.49561
482 1 -1.70848 1.81566 2.97526 -3.50643
483 1 -1.82582 -0.0349808 4.76933 -3.5411
484 1 -3.6396 1.72911 4.92991 -3.50453
485 1 0.0495152 -0.0792339 2.97697 -3.52971
486 1 1.82283 1.82628 3.05995 -3.5147
487 1 1.68071 0.0102378 4.80168 -3.48307
488 1 0.0140719 1.69502 4.94714 -3.47961
489 1 3.60481 0.0422549 2.98302 -3.50137
490 1 5.23248 1.82067 2.97668 -3.52458
491 1 5.43225 0.0419639 4.92657 -3.50015
492 1 3.58305 1.70422 4.90803 -3.51788
493 1 7.06472 0.0404858 2.94546 -3.54646
494 1 8.88416 1.79163 2.96624 -3.5419
495 1 8.87497 0.0475756 4.91147 -3.49833
496 1 7.14025 1.79211 4.86223 -3.50542
497 1 10.7956 -0.0976385 3.10466 -3.48638
498 1 12.3404 1.76019 3.03343 -3.46945
499 1 12.5352 -0.0604891 4.94641 -3.50655
500 1 10.6385 1.76406 4.87209 -3.52409
501 1 14.4191 0.0188831 3.11013 -3.53268
502 1 16.1655 1.91011 2.93386 -3.04695
503 1 16.2147 0.245594 4.78897 -3.16514
504 1 14.2597 1.70856 5.05295 -3.44012
505 1 17.6732 0.185321 2.95656 -2.38622
506 1 -16.1398 5.47614 2.98296 -2.94841
507 1 -16.0824 3.69999 4.74144 -3.13564
508 1 -14.2857 3.81412 3.06276 -3.50254
509 1 -12.372 5.31939 2.98617 -3.47994
510 1 -12.5871 3.54145 4.9678 -3.52026
511 1 -14.1961 5.56164 4.97364 -3.32374
512 1 -10.7235 3.63179 2.87468 -3.48342
513 1 -8.98035 5.39592 2.95064 -3.5481
514 1 -8.96321 3.59561 4.78456 -3.52016
515 1 -10.7973 5.35079 4.8166 -3.49267
516 1 -7.17552 3.52133 2.91193 -3.51997
517 1 -5.29982 5.46204 2.94798 -3.51066
518 1 -5.47503 3.62437 4.82995 -3.47586
519 1 -7.0721 5.32484 4.79609 -3.4696
520 1 -3.56675 3.50151 3.03012 -3.53377
521 1 -1.87179 5.35724 3.14265 -3.49475
522 1 -1.72553 3.45766 4.8865 -3.49982
523 1 -3.65645 5.38845 4.87711 -3.52692
524 1 0.0805741 3.56116 3.10843 -3.50774
525 1 1.67019 5.4239 2.94783 -3.50209
526 1 1.86842 3.50607 4.97911 -3.52754
527 1 -0.151043 5.35249 4.89779 -3.45772
528 1 3.43595 3.65789 2.97804 -3.45727
529 1 5.18509 5.21068 3.03531 -3.46877
530 1 5.37518 3.50592 4.89066 -3.52103
531 1 3.53433 5.46923 4.90541 -3.5081
532 1 7.09714 3.66148 3.0153 -3.50082
533 1 8.90347 5.25557 2.78948 -3.41495
534 1 8.94741 3.53341 4.92368 -3.51929
535 1 7.06871 5.30099 4.9327 -3.5222
536 1 10.6471 3.57194 2.97688 -3.51887
537 1 12.5336 5.4429 2.84954 -3.46318
538 1 12.4435 3.47007 4.8207 -3.50381
539 1 10.8427 5.27255 4.79695 -3.51765
540 1 14.2353 3.66083 2.94402 -3.45009
541 1 15.9555 5.39734 2.99853 -3.0013
542 1 16.0405 3.51054 4.76778 -3.06465
543 1 14.1231 5.32049 4.79075 -3.48156
544 1 -15.8085 7.12142 4.83001 -2.68297
545 1 -14.3162 7.05829 3.03719 -3.32901
546 1 -12.6369 9.18131 3.03491 -3.29663
547 1 -12.4155 7.21087 4.85939 -3.52267
548 1 -14.2961 9.03062 4.91113 -3.08595
549 1 -10.7351 7.2774 2.8897 -3.48174
550 1 -9.0353 9.14674 3.02478 -3.48465
551 1 -9.00714 7.28607 4.86938 -3.51783
552 1 -10.7941 8.97927 4.98173 -3.46771
553 1 -7.14973 7.26586 2.93474 -3.51383
554 1 -5.34108 9.09226 3.05934 -3.52387
555 1 -5.41151 7.19443 4.80975 -3.51806
556 1 -7.29881 9.08442 4.77257 -3.50731
557 1 -3.57436 7.22175 3.12498 -3.51559
558 1 -1.83555 8.95436 3.11298 -3.52942
559 1 -1.77972 7.1313 5.0315 -3.46995
560 1 -3.51471 9.07096 4.97666 -3.50965
561 1 -0.102376 7.06372 3.07634 -3.49478
562 1 1.64878 8.95993 3.09586 -3.51306
563 1 1.5852 7.10346 4.85467 -3.50106
564 1 -0.0610107 8.93914 4.86929 -3.48092
565 1 3.51967 7.32048 3.16217 -3.46636
566 1 5.28162 8.91118 3.10497 -3.48817
567 1 5.31025 7.15495 4.89214 -3.51529
568 1 3.49183 8.99487 4.8999 -3.50233
569 1 7.09737 7.10801 3.01209 -3.53753
570 1 9.0094 8.83781 3.18139 -3.47207
571 1 8.94083 7.0407 4.94298 -3.49822
572 1 7.19303 8.90777 4.86571 -3.52019
573 1 10.6874 6.90433 2.8895 -3.47216
574 1 12.4788 8.90998 3.03647 -3.47404
575 1 12.5208 7.11338 4.88388 -3.50743
576 1 10.7112 8.82352 4.82535 -3.43266
577 1 14.335 7.18065 2.85714 -3.3588
578 1 16.0188 6.98164 4.73715 -2.74019
579 1 14.3108 8.84104 4.89529 -3.11411
580 1 -14.1342 10.7837 2.98718 -2.65432
581 1 -12.474 12.6535 3.06946 -2.89586
582 1 -12.5438 10.7338 4.83454 -3.31495
583 1 -10.8037 10.8839 2.96706 -3.46813
584 1 -8.99572 12.6915 3.19325 -3.49554
585 1 -9.17103 10.7863 4.90334 -3.51674
586 1 -10.9052 12.5899 4.89947 -3.2903
587 1 -7.16688 10.7549 2.99687 -3.52004
588 1 -5.46319 12.5924 3.17291 -3.42696
589 1 -5.4 10.9546 4.88448 -3.45885
590 1 -7.15535 12.5709 4.87633 -3.46073
591 1 -3.62178 10.7945 2.9178 -3.48773
592 1 -1.78409 12.6692 3.13372 -3.49788
593 1 -1.6804 10.811 4.81708 -3.51586
594 1 -3.60343 12.5983 4.97607 -3.51488
595 1 -0.0381942 10.8553 2.94595 -3.52267
596 1 1.67017 12.8054 3.15699 -3.41576
597 1 1.72988 10.7471 4.83694 -3.50207
598 1 -0.00630513 12.6681 4.84524 -3.49518
599 1 3.4064 10.8031 3.08022 -3.48289
600 1 5.33007 12.5758 2.92207 -3.49248
601 1 5.40197 10.6946 4.97873 -3.50075
602 1 3.3533 12.5557 4.91464 -3.48907
603 1 7.13554 10.6599 3.04618 -3.49377
604 1 8.82903 12.4212 3.19067 -3.46287
605 1 8.91671 10.7607 5.05168 -3.51916
606 1 7.07417 12.6071 5.01706 -3.48216
607 1 10.6192 10.6117 3.21634 -3.45163
608 1 12.3918 12.3727 3.24454 -2.84854
609 1 12.3659 10.5541 5.00921 -3.35279
610 1 10.7649 12.5399 5.08817 -3.33425
611 1 14.2808 10.4487 3.18136 -2.6876
612 1 -10.7384 14.4838 3.05926 -2.70907
613 1 -9.01373 14.3959 5.04509 -3.14667
614 1 -7.1599 14.3171 3.15088 -3.33235
615 1 -5.44892 16.2209 2.98959 -2.99918
616 1 -5.4769 14.4002 4.89126 -3.4844
617 1 -7.24687 16.1297 5.02052 -2.72115
618 1 -3.62037 14.3153 3.12536 -3.47766
619 1 -2.0201 16.1667 3.15342 -3.12364
620 1 -1.92526 14.4283 5.00682 -3.49595
621 1 -3.68225 16.3326 4.87667 -2.97937
622 1 -0.172169 14.456 3.01552 -3.51134
623 1 1.7556 16.3007 3.05351 -3.12455
624 1 1.7362 14.4865 4.75151 -3.41272
625 1 -0.0167264 16.2898 4.90878 -3.192
626 1 3.59942 14.3432 3.05905 -3.42626
627 1 5.19615 16.1037 3.14995 -2.97769
628 1 5.10774 14.3483 5.07231 -3.47022
629 1 3.40535 16.2274 5.00945 -3.02571
630 1 7.11457 14.4524 3.27027 -3.36153
631 1 8.99605 14.4146 5.2622 -3.04777
632 1 6.90174 16.1199 5.20106 -2.70063
633 1 10.5052 14.2425 3.11796 -2.69766
634 1 -0.0901505 17.7714 3.10516 -2.38801
635 1 -5.35043 -16.2241 6.78866 -3.00271
636 1 -7.21865 -15.9655 8.44376 -2.74067
637 1 -1.93207 -16.4928 6.84373 -3.04915
638 1 -3.52805 -16.0548 8.63314 -3.04243
639 1 0.195791 -17.7437 6.88079 -2.39699
640 1 2.02252 -16.2256 6.80255 -3.07798
641 1 -0.0352666 -16.2106 8.66828 -3.22539
642 1 5.34002 -16.0233 6.75589 -2.99515
643 1 3.61826 -16.3275 8.59478 -3.00697
644 1 7.00202 -15.9122 8.52662 -2.77082
645 1 -12.4564 -12.5067 6.389 -2.8761
646 1 -10.5796 -14.1616 6.70243 -2.76886
647 1 -8.78682 -12.346 6.82142 -3.46452
648 1 -8.96543 -14.2152 8.571 -3.07675
649 1 -10.85 -12.486 8.58045 -3.32394
650 1 -7.09263 -14.3726 6.67541 -3.31993
651 1 -5.27547 -12.6833 6.87986 -3.51098
652 1 -5.37038 -14.3561 8.62476 -3.42725
653 1 -7.1882 -12.7655 8.76503 -3.37443
654 1 -3.41141 -14.3656 6.90243 -3.48303
655 1 -1.66619 -12.605 6.70339 -3.45844
656 1 -1.692 -14.3843 8.69515 -3.44703
657 1 -3.49307 -12.6305 8.73988 -3.50416
658 1 -0.0508388 -14.4957 6.78354 -3.50996
659 1 1.90615 -12.3611 6.85242 -3.39788
660 1 1.87097 -14.5894 8.76709 -3.45979
661 1 0.179104 -12.7551 8.5738 -3.52697
662 1 3.58541 -14.4211 6.79691 -3.43998
663 1 5.2929 -12.5393 6.69205 -3.51919
664 1 5.27178 -14.2021 8.67626 -3.44071
665 1 3.45948 -12.6036 8.69257 -3.46148
666 1 7.15164 -14.3397 6.6384 -3.35553
667 1 8.81432 -12.4802 6.79549 -3.46255
668 1 8.85834 -14.3557 8.62599 -3.11139
669 1 7.04769 -12.6818 8.62449 -3.47587
670 1 10.4884 -14.3111 6.72326 -2.73498
671 1 12.2769 -12.6848 6.71215 -2.85578
672 1 10.7252 -12.5972 8.70517 -3.30425
673 1 -14.2015 -10.7934 6.55524 -2.72139
674 1 -12.5121 -8.95551 6.7877 -3.4594
675 1 -12.6568 -10.729 8.46393 -3.27832
676 1 -14.2815 -8.89472 8.39309 -3.11013
677 1 -10.7201 -10.7502 6.79068 -3.50655
678 1 -8.87579 -8.93217 6.71496 -3.51936
679 1 -8.87289 -10.6503 8.51263 -3.49762
680 1 -10.7012 -8.98664 8.63427 -3.53936
681 1 -6.99281 -10.6557 6.64093 -3.4629
682 1 -5.19864 -9.06031 6.71291 -3.45407
683 1 -5.31197 -10.6595 8.57816 -3.48315
684 1 -7.00872 -8.96754 8.58519 -3.48648
685 1 -3.33121 -10.9074 6.83583 -3.51928
686 1 -1.65752 -8.93766 6.70265 -3.52658
687 1 -1.6292 -10.8983 8.65855 -3.51479
688 1 -3.38568 -9.03091 8.61806 -3.52876
689 1 0.0364187 -10.7489 6.82416 -3.49411
690 1 1.75135 -8.98559 6.77012 -3.53278
691 1 1.76863 -10.8266 8.64093 -3.46869
692 1 0.0152459 -8.96717 8.61418 -3.55169
693 1 3.66418 -10.7907 6.9802 -3.4186
694 1 5.35221 -9.1139 6.95955 -3.45955
695 1 5.30798 -10.954 8.71948 -3.46384
696 1 3.46537 -8.93955 8.77159 -3.49754
697 1 6.97608 -10.8195 6.63494 -3.47872
698 1 8.81989 -9.03839 6.76892 -3.51966
699 1 8.90209 -10.7766 8.50753 -3.49715
700 1 7.11488 -8.98003 8.70384 -3.51885
701 1 10.803 -10.752 6.62478 -3.471
702 1 12.4815 -8.99392 6.71861 -3.413
703 1 12.4415 -10.9825 8.64765 -3.2515
704 1 10.7473 -9.1345 8.42906 -3.46472
705 1 14.0481 -10.8388 6.88251 -2.78433
706 1 14.3108 -9.05107 8.5387 -3.14803
707 1 -15.9253 -5.2734 7.02273 -2.98248
708 1 -15.9703 -7.08628 8.73381 -2.71879
709 1 -14.4583 -7.17177 6.44842 -3.31257
710 1 -12.5315 -5.34971 6.75135 -3.50464
711 1 -12.4674 -7.07472 8.44828 -3.44912
712 1 -14.1795 -5.42407 8.63881 -3.41249
713 1 -10.701 -7.13571 6.82319 -3.47208
714 1 -8.83608 -5.35544 6.71331 -3.51638
715 1 -8.87237 -7.21387 8.58119 -3.52277
716 1 -10.6354 -5.44904 8.443 -3.44862
717 1 -7.07553 -7.16001 6.75469 -3.51392
718 1 -5.25962 -5.41585 6.76623 -3.49723
719 1 -5.19002 -7.20951 8.54466 -3.52457
720 1 -7.03645 -5.55289 8.57417 -3.50741
721 1 -3.46501 -7.23957 6.76051 -3.50798
722 1 -1.67987 -5.23443 6.74255 -3.53016
723 1 -1.71297 -7.15133 8.6355 -3.48172
724 1 -3.5708 -5.31404 8.54754 -3.4978
725 1 0.114944 -7.07956 6.75215 -3.49031
726 1 1.90569 -5.29437 6.76388 -3.47263
727 1 1.93025 -7.12449 8.65023 -3.44361
728 1 0.0403017 -5.56163 8.55855 -3.44983
729 1 3.54284 -7.18548 6.7909 -3.53006
730 1 5.29828 -5.34235 6.71906 -3.50667
731 1 5.2607 -7.10376 8.66473 -3.4937
732 1 3.57628 -5.34949 8.53023 -3.48486
733 1 6.95363 -7.26174 6.7401 -3.52524
734 1 8.96507 -5.45248 6.77835 -3.4876
735 1 9.03328 -7.22502 8.48903 -3.51373
736 1 7.04581 -5.35475 8.61952 -3.52141
737 1 10.6589 -7.1588 6.69366 -3.47863
738 1 12.5023 -5.41231 6.96968 -3.43418
739 1 12.4224 -7.38144 8.44515 -3.44241
740 1 10.7745 -5.35897 8.64196 -3.49666
741 1 14.3778 -7.20613 6.83221 -3.34038
742 1 16.2402 -5.28158 6.68267 -3.0041
743 1 16.0691 -7.08556 8.46907 -2.71466
744 1 14.411 -5.39237 8.48732 -3.43086
745 1 -15.9926 -1.71432 6.66675 -3.04928