ITEM: TIMESTEP
146000
ITEM: NUMBER OF ATOMS
3804
ITEM: BOX BOUNDS ss ss pp
-1.7855444392848931e+01 1.7618769432366726e+01
-1.7678419094408671e+01 1.7589031068983452e+01
-3.1667399999999999e+00 4.6546740000000000e+01
ITEM: ATOMS id type x y z c_peratom
1 1 -5.68815 -14.6544 -2.77341 -2.95362
2 1 -7.49675 -14.4446 -1.027 -2.7023
3 1 -1.99663 -14.6358 -2.64588 -3.14479
4 1 -3.95156 -14.7348 -0.673319 -2.93242
5 1 -0.169549 -16.41 -2.67042 -2.54187
6 1 1.69557 -16.4046 45.2327 -2.81403
7 1 -0.230986 -14.8904 -0.637539 -3.23936
8 1 5.54438 -15.4648 45.5401 -2.8368
9 1 3.8305 -15.5919 -2.16888 -2.87373
10 1 7.41196 -13.9011 0.14616 -2.6965
11 1 -12.7508 -10.707 -2.6066 -2.73499
12 1 -10.8228 -12.3626 -2.71387 -2.78069
13 1 -9.0203 -10.7629 -2.55728 -3.39908
14 1 -9.22118 -12.7972 -0.644421 -3.07321
15 1 -11.0248 -10.902 -0.740736 -3.26519
16 1 -7.5375 -12.5732 -2.58996 -3.32119
17 1 -5.53863 -11.2603 -2.56975 -3.46239
18 1 -5.62984 -12.9831 -0.758338 -3.42199
19 1 -7.2415 -11.0678 -0.583701 -3.49762
20 1 -3.83642 -13.0268 -2.5748 -3.44011
21 1 -1.95986 -12.9167 45.188 -3.46083
22 1 -2.20504 -13.3233 -0.620401 -3.33335
23 1 -3.72606 -11.4149 -0.600117 -3.50219
24 1 -0.178539 -14.7641 45.1326 -3.33707
25 1 1.52886 -12.9989 45.332 -3.44503
26 1 1.53707 -14.8108 -2.69239 -3.22565
27 1 -0.129161 -12.972 -2.44571 -3.47679
28 1 3.28632 -14.7011 45.1603 -3.27976
29 1 5.15646 -12.9515 45.4575 -3.50803
30 1 5.75532 -13.8712 -1.79411 -3.16807
31 1 3.17488 -13.1482 -2.6991 -3.40574
32 1 7.44989 -13.7917 45.9138 -3.08036
33 1 9.36324 -11.9279 46.1973 -3.22823
34 1 9.02762 -12.2928 0.237829 -3.0207
35 1 7.46705 -12.0999 -1.80738 -3.38541
36 1 10.9016 -11.8134 -1.43945 -2.68443
37 1 12.8594 -9.89058 -1.70047 -2.80142
38 1 10.8375 -10.2229 0.245918 -3.29002
39 1 -14.3829 -8.49043 -2.67201 -2.7331
40 1 -12.4288 -7.26296 -2.45833 -3.37618
41 1 -12.8578 -9.09037 -0.743422 -3.30145
42 1 -14.49 -7.10506 -0.337717 -3.07611
43 1 -11.0166 -9.3517 -2.43038 -3.3025
44 1 -9.04849 -7.63088 -2.25603 -3.50147
45 1 -9.04236 -9.25839 -0.473431 -3.4431
46 1 -10.8239 -7.54466 -0.353496 -3.46939
47 1 -7.10094 -9.28192 -2.44424 -3.5056
48 1 -5.35573 -9.20917 45.42 -3.48879
49 1 -5.46015 -9.53297 -0.589339 -3.40377
50 1 -7.09181 -7.85852 -0.369433 -3.46442
51 1 -3.83321 -11.2214 45.1336 -3.47532
52 1 -2.04842 -9.42971 45.55 -3.4755
53 1 -1.99 -11.3694 -2.42013 -3.49046
54 1 -3.82223 -9.63633 -2.40427 -3.49151
55 1 -0.152295 -11.2733 45.3717 -3.48314
56 1 1.46368 -9.44736 45.6444 -3.45937
57 1 1.49256 -11.222 -2.33443 -3.49687
58 1 -0.432363 -9.56116 -2.42008 -3.45221
59 1 3.19926 -11.1186 45.4658 -3.49925
60 1 5.12184 -9.65325 45.5586 -3.48376
61 1 4.98167 -11.3674 -2.16856 -3.48735
62 1 3.3244 -9.55856 -2.18127 -3.46871
63 1 6.95755 -11.3631 45.4513 -3.46866
64 1 8.64612 -9.56064 45.763 -3.48571
65 1 9.10492 -10.0848 -1.63511 -3.41941
66 1 6.75693 -9.73228 -2.26079 -3.48272
67 1 11.1177 -10.0584 46.282 -3.33471
68 1 12.8128 -8.17901 46.3334 -3.31366
69 1 12.664 -8.55165 0.488363 -3.2999
70 1 11.0663 -8.27919 -1.49471 -3.47908
71 1 14.4856 -8.19317 -1.1867 -2.678
72 1 14.5466 -6.70378 0.84523 -3.06477
73 1 -15.687 -3.60821 -2.1308 -2.99761
74 1 -15.8571 -5.08358 -0.238417 -2.75456
75 1 -14.2157 -5.58033 -2.44228 -3.37774
76 1 -12.1685 -3.79624 -2.18017 -3.52289
77 1 -12.3133 -5.74077 -0.449847 -3.45405
78 1 -13.8751 -3.81102 -0.336534 -3.44827
79 1 -10.5526 -5.78988 -2.2501 -3.47227
80 1 -8.92775 -5.8793 45.361 -3.48868
81 1 -8.70154 -5.95225 -0.25618 -3.53807
82 1 -10.3127 -4.11772 -0.220786 -3.474
83 1 -7.1539 -7.50365 45.3568 -3.47416
84 1 -5.28877 -5.91052 45.5666 -3.47806
85 1 -5.32627 -7.59421 -2.2744 -3.47367
86 1 -7.12018 -5.93375 -2.3171 -3.49963
87 1 -3.63257 -7.59904 45.5067 -3.4419
88 1 -1.88185 -5.79627 45.5836 -3.45531
89 1 -2.09735 -7.73788 -2.10664 -3.51128
90 1 -3.63001 -5.9015 -2.21981 -3.47131
91 1 -0.259652 -7.63197 45.6947 -3.44988
92 1 1.50321 -6.18882 45.7543 -3.44207
93 1 1.51645 -7.97807 -2.21114 -3.48389
94 1 -0.358366 -6.03591 -2.11708 -3.52021
95 1 3.31488 -7.82245 45.6796 -3.51488
96 1 5.04443 -5.91674 45.8988 -3.50444
97 1 5.0297 -7.83724 -2.0818 -3.46209
98 1 3.29246 -6.16144 -2.07754 -3.47613
99 1 6.80419 -7.74376 45.6782 -3.51841
100 1 8.51892 -5.92122 46.0963 -3.50078
101 1 8.45619 -7.73522 -2.04218 -3.48955
102 1 6.60877 -6.07695 -1.81118 -3.46683
103 1 10.293 -7.73491 45.8649 -3.50024
104 1 12.0107 -5.81202 46.126 -3.5094
105 1 12.7696 -6.58181 -1.08332 -3.41005
106 1 10.3404 -5.89129 -1.58511 -3.47272
107 1 14.573 -6.41291 -3.13869 -3.20097
108 1 16.2026 -4.4119 -2.93681 -2.82214
109 1 16.1827 -4.85434 1.15921 -2.67054
110 1 14.4508 -4.80888 -1.02479 -3.33142
111 1 -15.7584 -0.487052 -1.95957 -2.99604
112 1 -15.8461 -2.1746 -0.0977532 -3.02888
113 1 -13.8832 -2.02891 -2.14406 -3.44209
114 1 -12.0953 -1.94994 45.7254 -3.5243
115 1 -11.9517 -2.31554 -0.169421 -3.50027
116 1 -13.7537 -0.595453 -0.113159 -3.48785
117 1 -10.3569 -3.98004 45.6697 -3.44494
118 1 -8.60479 -2.17208 45.6805 -3.49557
119 1 -8.61236 -4.06009 -2.14103 -3.45814
120 1 -10.1683 -2.20511 -2.17904 -3.47832
121 1 -6.89559 -4.06285 45.5747 -3.52745
122 1 -5.2974 -2.0731 45.7237 -3.46241
123 1 -5.21413 -3.94125 -2.28379 -3.49984
124 1 -6.98722 -2.20333 -2.0081 -3.493
125 1 -3.6611 -3.96806 45.5914 -3.49681
126 1 -1.87333 -2.30686 45.775 -3.4988
127 1 -1.93574 -4.14758 -1.88543 -3.42543
128 1 -3.46599 -2.29302 -1.95866 -3.47896
129 1 -0.0769481 -4.33082 45.5842 -3.42711
130 1 1.57598 -2.43836 45.8452 -3.44054
131 1 1.55788 -4.4397 -2.01805 -3.47044
132 1 -0.119166 -2.48024 -1.89245 -3.51436
133 1 3.22152 -4.29297 45.8377 -3.50609
134 1 4.92589 -2.45646 46.0556 -3.52015
135 1 4.81629 -4.25699 -1.82855 -3.49931
136 1 3.03145 -2.54785 -1.70919 -3.48716
137 1 6.76065 -4.08819 46.07 -3.47537
138 1 8.35805 -2.30967 46.1318 -3.45471
139 1 8.42327 -4.13346 -1.69237 -3.50495
140 1 6.49044 -2.54457 -1.60888 -3.46211
141 1 10.2877 -3.98628 46.1268 -3.50584
142 1 12.2934 -2.23782 46.1803 -3.41475
143 1 12.1458 -4.15533 -1.62614 -3.47541
144 1 10.3602 -2.44371 -1.72462 -3.48029
145 1 13.7747 -4.16688 46.1819 -3.43849
146 1 15.5635 -2.212 46.168 -3.14656
147 1 16.1392 -3.173 -0.826448 -2.88864
148 1 13.905 -2.36653 -1.66064 -3.45413
149 1 -17.7601 2.318 41.4449 -2.63716
150 1 -15.8349 1.39198 45.8145 -3.04082
151 1 -15.6126 1.13739 0.155992 -3.14619
152 1 -14.0445 -0.326738 45.5981 -3.40367
153 1 -12.1353 1.27484 46.0693 -3.47843
154 1 -11.9247 -0.413024 -1.8494 -3.4636
155 1 -13.9334 1.10141 -1.99913 -3.4599
156 1 -10.3115 -0.261409 45.7337 -3.45964
157 1 -8.68987 1.49076 45.9407 -3.49887
158 1 -8.56047 -0.343495 -2.01022 -3.49192
159 1 -10.3847 1.37405 -1.8367 -3.45351
160 1 -6.95511 -0.397889 45.7928 -3.46678
161 1 -5.16274 1.28225 46.1146 -3.47713
162 1 -5.29125 -0.498495 -1.8554 -3.50372
163 1 -6.88125 1.33008 -1.78612 -3.46612
164 1 -3.54585 -0.507439 45.9255 -3.46638
165 1 -1.59132 1.18411 46.0482 -3.50909
166 1 -1.68196 -0.667215 -1.83385 -3.44536
167 1 -3.34149 1.02929 -1.772 -3.44931
168 1 0.112542 -0.557371 46.134 -3.47758
169 1 1.77555 1.24772 46.4198 -3.4614
170 1 1.56898 -0.555266 -1.56078 -3.4661
171 1 -0.040782 1.16187 -1.45178 -3.4692
172 1 3.22877 -0.742665 46.2762 -3.42771
173 1 4.8278 1.03677 46.3587 -3.50726
174 1 4.84538 -0.772268 -1.53413 -3.46756
175 1 3.37025 1.16911 -1.33376 -3.48834
176 1 6.78471 -0.494362 46.1462 -3.44474
177 1 8.58528 1.29839 46.221 -3.46604
178 1 8.29647 -0.599921 -1.68386 -3.48115
179 1 6.48522 0.970755 -1.35683 -3.42918
180 1 10.2648 -0.605922 46.3162 -3.51776
181 1 11.9945 1.22377 46.5438 -3.46197
182 1 12.146 -0.560044 -1.49611 -3.49108
183 1 10.201 1.00481 -1.36715 -3.48607
184 1 13.8675 -0.398235 46.3828 -3.52065
185 1 15.5381 1.48367 -3.31605 -3.1674
186 1 15.5767 -0.660871 -1.42308 -3.2643
187 1 13.8999 1.15588 -1.1847 -3.49942
188 1 16.9208 -0.360124 -3.44689 -2.55322
189 1 -15.3985 5.13144 46.034 -2.99382
190 1 -15.7179 2.89442 -1.69211 -2.94029
191 1 -13.8783 3.12707 46.0526 -3.48614
192 1 -12.0662 4.97807 46.0743 -3.44721
193 1 -12.1091 3.02531 -1.73792 -3.47204
194 1 -13.7851 4.75233 -1.77632 -3.41715
195 1 -10.4312 3.17431 45.9234 -3.50701
196 1 -8.51219 4.9538 46.1732 -3.52371
197 1 -8.62988 3.05971 -1.75588 -3.4592
198 1 -10.3146 4.74195 -1.73907 -3.50935
199 1 -6.79308 3.20753 46.0717 -3.46454
200 1 -5.14507 4.83295 46.3692 -3.47214
201 1 -4.87388 2.84755 -1.60982 -3.45724
202 1 -7.00741 4.89998 -1.52204 -3.44918
203 1 -3.36926 3.06962 46.1902 -3.49798
204 1 -1.59216 4.92254 46.287 -3.52268
205 1 -1.74157 2.99949 -1.55989 -3.53024
206 1 -3.38149 4.89495 -1.50095 -3.4603
207 1 0.116881 2.99897 46.1852 -3.51814
208 1 1.64308 5.00597 46.3913 -3.49099
209 1 1.56215 2.98447 -1.41228 -3.44799
210 1 0.0340153 4.73265 -1.37398 -3.42559
211 1 3.27 3.12139 46.2698 -3.48614
212 1 5.06763 4.78155 46.5164 -3.49688
213 1 5.02976 2.91645 -1.3539 -3.48285
214 1 3.31396 4.61571 -1.33211 -3.51126
215 1 6.71519 2.92954 46.3776 -3.50385
216 1 8.31771 4.78101 -3.16225 -3.4879
217 1 8.29317 2.67807 -1.37114 -3.49667
218 1 6.75169 4.65914 -1.22518 -3.49627
219 1 10.1649 3.17784 46.5868 -3.46376
220 1 12.003 4.7116 46.6876 -3.5235
221 1 12.0021 2.72108 -1.15636 -3.469
222 1 10.1449 4.4976 -1.08313 -3.51313
223 1 13.6925 2.81496 -3.15402 -3.37929
224 1 15.6456 4.24491 -3.18627 -3.00731
225 1 15.5599 2.92245 -1.16588 -3.14459
226 1 13.6264 4.43966 -1.02666 -3.40282
227 1 -15.3533 6.74727 -1.72643 -2.88016
228 1 -13.6004 6.735 46.1421 -3.3664
229 1 -11.892 8.74116 46.4046 -3.35643
230 1 -12.1119 6.80195 -1.58727 -3.46688
231 1 -13.5395 8.66897 -1.40636 -3.10503
232 1 -10.411 6.82665 46.2506 -3.5124
233 1 -8.53069 8.56562 46.3931 -3.51479
234 1 -8.54499 6.72347 -1.42589 -3.4739
235 1 -10.4183 8.58994 -1.47577 -3.49192
236 1 -6.72139 6.83387 46.282 -3.51318
237 1 -5.02258 8.60982 46.5852 -3.47613
238 1 -5.13324 6.67174 -1.42361 -3.51108
239 1 -6.81851 8.45326 -1.37892 -3.47219
240 1 -3.3956 6.78286 46.4743 -3.50144
241 1 -1.65778 8.64122 -3.12979 -3.53945
242 1 -1.79501 6.68 -1.31952 -3.46404
243 1 -3.4609 8.55437 -1.06691 -3.52357
244 1 -0.0284105 6.77659 -3.03726 -3.46377
245 1 1.69982 8.51659 -3.12847 -3.50543
246 1 1.60168 6.4732 -1.18048 -3.46576
247 1 -0.0373633 8.26053 -1.03558 -3.43626
248 1 3.48441 6.6001 -2.99778 -3.48838
249 1 4.92875 8.50675 -2.98326 -3.46094
250 1 5.11678 6.486 -1.12776 -3.49814
251 1 3.43333 8.30079 -1.12396 -3.45964
252 1 6.76776 6.63735 -2.96448 -3.49543
253 1 8.4821 8.28199 -2.90938 -3.4392
254 1 8.52598 6.40887 -1.10935 -3.52906
255 1 6.72492 8.34075 -1.04915 -3.46255
256 1 10.1874 6.54458 -2.96917 -3.5081
257 1 12.1237 7.91529 46.9033 -3.44697
258 1 11.9519 6.22424 -0.960427 -3.48525
259 1 10.3471 8.07012 -1.0071 -3.447
260 1 14.0909 6.26622 -2.90206 -3.26522
261 1 15.4465 5.94208 -1.05714 -2.74973
262 1 13.8336 7.95445 -0.800209 -3.14917
263 1 -14.1807 9.07232 45.8113 -2.89383
264 1 -12.5306 11.019 45.9398 -2.83318
265 1 -12.0499 10.4458 -1.16705 -3.19416
266 1 -10.2258 10.4863 46.4694 -3.44108
267 1 -8.47429 12.2418 -3.11032 -3.36456
268 1 -8.47952 10.5512 -1.2477 -3.47057
269 1 -10.2983 12.2489 -1.11705 -3.21987
270 1 -6.84094 10.4417 -3.06921 -3.48479
271 1 -5.22354 12.3127 -2.75862 -3.45244
272 1 -5.22744 10.2525 -1.18611 -3.45705
273 1 -6.85085 12.3223 -1.02766 -3.44839
274 1 -3.45008 10.4558 -3.0345 -3.47256
275 1 -1.64819 12.0975 -2.97204 -3.47249
276 1 -1.58618 10.3273 -1.01507 -3.47287
277 1 -3.37124 11.9214 -0.948757 -3.50218
278 1 0.0805008 10.3969 -2.9401 -3.48952
279 1 1.82085 12.1821 -2.66658 -3.46826
280 1 1.69299 10.1008 -0.945427 -3.51432
281 1 0.0362678 12.0121 -0.869053 -3.47519
282 1 3.30305 10.3219 -2.77674 -3.48197
283 1 5.26283 12.0047 -2.92643 -3.49031
284 1 5.07735 10.0059 -0.91819 -3.46608
285 1 3.48977 11.9055 -0.596309 -3.47596
286 1 6.83874 10.0284 -2.8117 -3.4685
287 1 8.65987 11.6377 -2.61838 -3.43131
288 1 8.59528 9.84738 -1.05634 -3.46805
289 1 6.87609 11.665 -0.634742 -3.46889
290 1 10.442 9.80449 -2.76466 -3.51301
291 1 12.2122 11.5847 -2.66128 -2.87376
292 1 12.0315 9.72903 -0.808789 -3.32027
293 1 10.4384 11.5463 -0.797375 -3.3262
294 1 13.751 9.685 -2.72125 -2.76552
295 1 -10.7928 12.9123 46.1164 -2.70327
296 1 -8.58916 14.0376 -1.01891 -2.96017
297 1 -6.78129 14.1968 -2.93083 -3.20888
298 1 -4.84862 15.682 -2.68716 -2.8954
299 1 -4.89668 13.7961 -0.884818 -3.41083
300 1 -6.57009 15.5903 -0.807797 -2.75106
301 1 -3.27154 13.877 -2.91465 -3.41831
302 1 -1.62127 15.6284 -2.75131 -3.15631
303 1 -1.68048 13.891 -0.788117 -3.47448
304 1 -3.31631 15.6856 -0.787091 -2.99851
305 1 0.10147 13.8702 -2.51939 -3.48809
306 1 1.89356 15.6613 -2.35071 -3.13558
307 1 1.74252 13.7715 -0.537024 -3.45561
308 1 0.0433944 15.6058 -0.532733 -3.24835
309 1 3.65612 13.7959 -2.49876 -3.43077
310 1 5.43557 15.433 -2.12599 -2.96525
311 1 5.28577 13.3849 -0.744143 -3.39182
312 1 3.51635 15.3527 -0.519045 -3.02447
313 1 7.20428 13.5226 -2.43849 -3.34114
314 1 8.7736 13.3013 -0.64474 -3.07799
315 1 7.21829 15.0255 -0.49989 -2.7413
316 1 10.442 13.4023 -2.46737 -2.76255
317 1 0.0978535 17.2897 -2.38846 -2.34632
318 1 -5.81707 -14.6014 1.11748 -2.94232
319 1 -7.64876 -14.6705 3.23504 -2.63903
320 1 -2.21289 -14.8965 1.2796 -3.00212
321 1 -4.20418 -14.7212 3.15718 -2.93426
322 1 2.18144 -15.7377 -0.331766 -2.92903
323 1 3.82587 -15.7602 1.50642 -2.50541
324 1 0.338234 -15.5661 1.67093 -2.70771
325 1 5.64087 -14.1757 1.92551 -3.09703
326 1 3.94693 -14.2513 3.85119 -3.13728
327 1 7.03604 -14.1964 4.13121 -2.74385
328 1 -12.8721 -10.8429 1.23168 -2.73625
329 1 -11.1671 -12.4585 1.18424 -2.70753
330 1 -9.20036 -10.8684 1.31103 -3.42692
331 1 -9.32818 -12.6648 3.05767 -3.14503
332 1 -11.2622 -11.0216 3.29083 -3.24301
333 1 -7.55526 -12.9004 1.1999 -3.32192
334 1 -5.69028 -11.2619 1.31577 -3.49431
335 1 -5.97769 -12.9966 3.19892 -3.33771
336 1 -7.41657 -10.9261 3.53468 -3.45455
337 1 -4.02391 -13.1409 1.25372 -3.36008
338 1 -2.0601 -11.6954 1.54495 -3.44661
339 1 -1.92391 -13.5139 3.44392 -3.30445
340 1 -3.82268 -11.867 3.40428 -3.49785
341 1 -0.314625 -13.3017 1.35999 -3.40663
342 1 1.61819 -13.2401 -0.49499 -3.51224
343 1 2.2292 -14.0484 1.90466 -3.31429
344 1 -0.183437 -11.76 3.42079 -3.46633
345 1 4.15095 -13.8277 -0.0638496 -3.33715
346 1 5.86818 -12.0399 0.124656 -3.41765
347 1 5.44232 -12.4086 3.91963 -3.39667
348 1 4.05053 -12.2292 2.01561 -3.50015
349 1 7.27143 -12.2842 2.15646 -3.39553
350 1 9.05468 -10.3823 2.34531 -3.44206
351 1 8.92926 -12.6045 4.03504 -3.06598
352 1 7.24122 -10.6863 4.09513 -3.46963
353 1 10.5715 -12.2142 2.06016 -2.71657
354 1 12.3516 -10.4453 2.3935 -2.85302
355 1 10.6315 -10.9007 4.2063 -3.26267
356 1 -14.2984 -9.05868 1.37098 -2.68932
357 1 -12.7366 -7.23597 1.60152 -3.4022
358 1 -12.7012 -9.24557 3.51393 -3.25873
359 1 -14.4565 -7.43957 3.39875 -3.08038
360 1 -11.1016 -9.26743 1.40541 -3.5118
361 1 -8.94199 -7.84726 1.52661 -3.46132
362 1 -9.40022 -9.48137 3.22847 -3.41256
363 1 -10.9304 -7.59585 3.42266 -3.48182
364 1 -7.22479 -9.46517 1.47048 -3.39245
365 1 -5.30561 -7.94938 1.51098 -3.45117
366 1 -5.27185 -9.85314 3.48485 -3.4438
367 1 -6.91855 -8.14767 3.52455 -3.50689
368 1 -3.55299 -9.70653 1.44314 -3.50293
369 1 -1.96931 -9.7747 -0.455033 -3.48065
370 1 -1.9839 -9.97587 3.47224 -3.48523
371 1 -3.69761 -8.0399 3.64031 -3.51023
372 1 -0.312401 -11.6212 -0.412565 -3.49632
373 1 1.39379 -9.75132 -0.393346 -3.4893
374 1 1.68817 -11.7205 1.65357 -3.45818
375 1 -0.452869 -9.95555 1.5048 -3.46728
376 1 3.29077 -11.4741 -0.439641 -3.47961
377 1 5.03422 -9.75934 0.0113203 -3.44139
378 1 5.68792 -10.3941 2.29259 -3.46145
379 1 3.21529 -9.79877 1.56027 -3.47871
380 1 7.51891 -10.334 0.173943 -3.44128
381 1 9.02805 -8.46639 0.477807 -3.45564
382 1 9.16796 -8.87116 4.30444 -3.49847
383 1 7.35706 -8.58672 2.42289 -3.49867
384 1 10.6062 -8.48385 2.36104 -3.42694
385 1 12.4632 -6.84788 2.74609 -3.43694
386 1 12.2441 -8.92679 4.39302 -3.35648
387 1 10.795 -6.91703 4.48375 -3.47323
388 1 14.1292 -8.61716 2.74618 -2.67076
389 1 14.1634 -6.95036 4.71942 -3.04693
390 1 -15.847 -3.62369 1.74585 -2.97185
391 1 -16.1851 -5.44724 3.35578 -2.64458
392 1 -14.3366 -5.5684 1.79796 -3.2508
393 1 -12.2339 -4.20295 1.64898 -3.53056
394 1 -12.6409 -5.89342 3.81451 -3.43064
395 1 -14.1898 -3.99336 3.68436 -3.41111
396 1 -10.558 -5.9889 1.54276 -3.44882
397 1 -8.79446 -4.27428 1.85476 -3.48484
398 1 -8.74694 -6.31527 3.64162 -3.54469
399 1 -10.63 -4.42521 3.83551 -3.49046
400 1 -7.03486 -6.19287 1.71074 -3.49724
401 1 -5.50118 -5.92789 -0.414551 -3.47678
402 1 -5.45926 -6.25026 3.65059 -3.49436
403 1 -7.08578 -4.40121 3.74464 -3.47407
404 1 -3.81363 -7.84312 -0.271451 -3.46019
405 1 -2.04738 -6.05687 -0.0888136 -3.46883
406 1 -1.9555 -7.87957 1.50432 -3.46789
407 1 -3.71379 -6.14623 1.74023 -3.48655
408 1 -0.227049 -8.0213 -0.368535 -3.49643
409 1 1.56104 -6.19184 -0.24487 -3.4733
410 1 1.26334 -8.22258 1.72004 -3.48441
411 1 -0.222178 -6.235 1.66227 -3.47501
412 1 3.29088 -8.00076 -0.23603 -3.52201
413 1 5.10651 -6.18108 0.0708739 -3.42821
414 1 4.84352 -7.86701 1.88834 -3.50964
415 1 2.89295 -6.31183 1.84171 -3.50205
416 1 6.7032 -7.89092 -0.0198546 -3.46215
417 1 8.4573 -5.97842 0.0938465 -3.51838
418 1 8.9658 -6.78819 2.70054 -3.44041
419 1 6.59639 -6.15112 2.07742 -3.44329
420 1 10.8857 -6.69839 0.62595 -3.49048
421 1 12.7242 -4.91348 0.984301 -3.48798
422 1 12.5155 -5.13639 4.58321 -3.49044
423 1 10.7552 -4.96716 2.75256 -3.51759
424 1 14.3494 -5.03159 2.68803 -3.2854
425 1 15.9668 -3.13428 3.02414 -3.0209
426 1 15.7975 -5.19978 4.7074 -2.74901
427 1 14.2547 -3.31463 4.75233 -3.41058
428 1 -15.6586 -0.709417 1.98854 -3.14905
429 1 -15.8919 -2.21815 4.01022 -3.01291
430 1 -13.867 -2.30583 1.75493 -3.44627
431 1 -12.0687 -0.547715 1.93373 -3.53375
432 1 -12.1986 -2.53774 3.76616 -3.44648
433 1 -13.7818 -0.82001 3.86233 -3.47482
434 1 -10.3608 -2.49939 1.86063 -3.46627
435 1 -8.835 -2.26373 -0.0695181 -3.48139
436 1 -8.81555 -2.75586 3.85172 -3.49018
437 1 -10.4106 -0.728295 3.9562 -3.49646
438 1 -7.0022 -4.09166 -0.245906 -3.45895
439 1 -5.2575 -2.46456 -0.0952655 -3.51136
440 1 -5.49524 -4.40895 1.74661 -3.46134
441 1 -7.01048 -2.54246 1.98664 -3.48887
442 1 -3.70108 -4.39573 -0.283195 -3.39059
443 1 -1.96431 -2.6339 0.0270331 -3.49095
444 1 -1.87359 -4.39193 1.89938 -3.51766
445 1 -3.7507 -2.48882 2.04655 -3.43452
446 1 -0.112013 -4.40282 -0.106562 -3.49446
447 1 1.50817 -2.55606 0.221979 -3.4803
448 1 1.3078 -4.43041 1.96156 -3.43566
449 1 -0.233807 -2.61609 2.2134 -3.44999
450 1 3.21785 -4.43282 0.192168 -3.51285
451 1 4.7689 -2.50672 0.344514 -3.45569
452 1 4.7462 -4.66763 2.15885 -3.41535
453 1 3.05784 -2.77772 2.20431 -3.49599
454 1 6.64906 -4.29741 0.160796 -3.47764
455 1 8.40679 -2.62403 0.297877 -3.47595
456 1 8.39746 -4.50584 2.06385 -3.45427
457 1 6.67637 -2.70251 2.3083 -3.49828
458 1 10.3828 -4.14296 0.334354 -3.49711
459 1 12.1329 -2.41017 0.26043 -3.50565
460 1 12.6954 -3.17685 2.88255 -3.51276
461 1 10.2132 -2.58952 2.27579 -3.50368
462 1 14.4536 -3.03647 1.07205 -3.44592
463 1 16.2565 -1.20089 1.26902 -2.92601
464 1 16.078 -1.61037 5.06046 -3.02177
465 1 14.3107 -1.29695 3.20243 -3.4305
466 1 -17.1929 1.21269 2.03634 -2.52376
467 1 -15.4869 3.0978 2.03729 -3.24497
468 1 -15.748 0.823235 3.98914 -3.19969
469 1 -14.0108 1.05282 1.96896 -3.47983
470 1 -12.2508 1.34166 0.133189 -3.48834
471 1 -12.1724 1.07236 4.03036 -3.46321
472 1 -13.9055 2.60117 4.05193 -3.45237
473 1 -10.3403 -0.319965 0.131553 -3.47144
474 1 -8.60202 1.29072 0.146194 -3.47078
475 1 -8.64848 -0.76806 2.17907 -3.47732
476 1 -10.2528 1.23427 2.20373 -3.51037
477 1 -7.01098 -0.540812 0.0948674 -3.50465
478 1 -5.25974 1.12609 0.290682 -3.49762
479 1 -5.27923 -0.752194 2.07717 -3.45161
480 1 -6.99861 1.03472 2.2016 -3.51666
481 1 -3.45321 -0.744213 0.240703 -3.49866
482 1 -1.7917 1.03189 0.356883 -3.43146
483 1 -1.94801 -0.862026 2.22671 -3.45273
484 1 -3.69117 1.06719 2.26867 -3.48702
485 1 -0.2721 -0.796813 0.388499 -3.50124
486 1 1.52488 1.03316 0.547516 -3.53408
487 1 1.48955 -0.815764 2.51177 -3.46243
488 1 -0.340062 0.846697 2.31042 -3.42234
489 1 3.14622 -0.806263 0.526517 -3.46525
490 1 4.91188 1.02162 0.574368 -3.51456
491 1 4.86839 -0.969676 2.38137 -3.51949
492 1 3.24923 0.910202 2.54726 -3.50383
493 1 6.51571 -0.855859 0.391632 -3.48195
494 1 8.32111 0.869556 0.457532 -3.48498
495 1 8.23515 -0.811902 2.34045 -3.47238
496 1 6.53299 0.92077 2.5731 -3.46478
497 1 10.1473 -0.841874 0.31173 -3.49329
498 1 12.0353 0.924517 0.495885 -3.46947
499 1 11.9588 -0.783264 2.36062 -3.47497
500 1 10.1974 0.813199 2.36801 -3.46565
501 1 13.9106 -0.57327 0.655504 -3.47283
502 1 15.7534 1.18939 0.696311 -3.19593
503 1 16.1776 0.360483 3.38465 -2.98033
504 1 13.8928 0.96424 2.72895 -3.45139
505 1 17.1648 1.10477 -1.44448 -2.54291
506 1 -15.5899 4.80061 -0.0524184 -2.92242
507 1 -15.362 4.61345 4.05724 -3.07799
508 1 -13.9363 3.12367 0.099536 -3.39405
509 1 -12.1294 4.82949 0.124221 -3.45109
510 1 -12.2763 2.82743 2.12417 -3.47188
511 1 -13.7116 4.7155 2.12802 -3.34046
512 1 -10.4096 3.05156 0.247976 -3.51724
513 1 -8.61633 4.80015 0.367874 -3.47866
514 1 -8.5534 2.98706 2.22643 -3.48173
515 1 -10.4384 4.69815 2.38162 -3.50086
516 1 -6.78404 3.05218 0.137828 -3.49045
517 1 -5.03685 4.84396 0.48998 -3.50684
518 1 -5.25197 2.89507 2.31448 -3.45402
519 1 -6.75931 4.69615 2.39642 -3.43749
520 1 -3.39985 2.81618 0.521827 -3.49417
521 1 -1.68066 4.72318 0.625232 -3.49859
522 1 -1.81211 2.65139 2.65426 -3.42387
523 1 -3.53079 4.602 2.46639 -3.52256
524 1 -0.123047 2.86244 0.570107 -3.49686
525 1 1.54436 4.64039 0.482679 -3.43918
526 1 1.62121 2.89306 2.49907 -3.48677
527 1 -0.146899 4.50066 2.62735 -3.46541
528 1 3.24142 2.94576 0.55983 -3.48358
529 1 5.01299 4.5645 0.705678 -3.49634
530 1 4.8934 2.70233 2.4729 -3.47326
531 1 3.29347 4.57207 2.74279 -3.44853
532 1 6.73403 2.8331 0.766406 -3.50148
533 1 8.39479 4.59582 0.91846 -3.43134
534 1 8.39621 2.75688 2.70687 -3.47622
535 1 6.7179 4.53703 2.72468 -3.47431
536 1 10.0866 2.79849 0.850915 -3.48743
537 1 12.065 4.40517 0.874506 -3.49555
538 1 11.9538 2.61513 2.61175 -3.49398
539 1 10.244 4.4902 2.72491 -3.49351
540 1 13.8151 2.72474 0.872859 -3.46811
541 1 15.6162 4.35264 0.81276 -2.99904
542 1 15.4988 2.8186 2.89834 -3.11303
543 1 13.753 4.35111 2.7761 -3.42132
544 1 -15.4031 6.27517 2.01718 -2.7174
545 1 -13.6559 6.75225 0.383898 -3.31513
546 1 -12.0766 8.55043 0.594402 -3.41859
547 1 -12.0227 6.79625 2.39524 -3.4842
548 1 -14.0748 8.44043 2.44235 -2.99509
549 1 -10.4148 6.55396 0.330231 -3.51309
550 1 -8.70248 8.41107 0.604358 -3.47285
551 1 -8.7344 6.55798 2.39282 -3.52999
552 1 -10.2837 8.49707 2.47736 -3.4424
553 1 -6.97649 6.57688 0.542468 -3.48603
554 1 -5.183 8.17283 0.777004 -3.46203
555 1 -5.16484 6.42398 2.62192 -3.42029
556 1 -6.83575 8.12223 2.57617 -3.45323
557 1 -3.33871 6.57037 0.654333 -3.49028
558 1 -1.67875 8.39588 0.732062 -3.45431
559 1 -1.77789 6.4585 2.66049 -3.49416
560 1 -3.48038 8.22788 2.69053 -3.50546
561 1 -0.0750429 6.57349 0.700607 -3.49335
562 1 1.82667 8.1958 0.903871 -3.45825
563 1 1.59186 6.30093 2.603 -3.51437
564 1 -0.01438 8.22571 2.80714 -3.52666
565 1 3.29779 6.33779 0.695513 -3.45355
566 1 4.92069 8.09692 0.818939 -3.51279
567 1 5.03053 6.26406 2.86861 -3.49127
568 1 3.43995 8.28919 2.89868 -3.48663
569 1 6.72516 6.33519 0.9718 -3.48636
570 1 8.51842 8.06792 0.968761 -3.50015
571 1 8.45277 6.24501 2.8478 -3.46674
572 1 6.7352 8.12604 2.77517 -3.48436
573 1 10.2099 6.25595 0.787617 -3.48106
574 1 11.9453 7.87979 0.949509 -3.45437
575 1 11.9561 6.16585 2.92249 -3.48996
576 1 10.105 7.9046 3.10788 -3.45622
577 1 13.8371 6.15878 0.893255 -3.32347
578 1 15.5626 5.95939 2.65863 -2.71344
579 1 13.8703 7.69053 2.65184 -3.07271
580 1 -13.7188 10.3715 0.65448 -2.66122
581 1 -11.949 11.9398 0.915337 -2.87134
582 1 -12.0832 10.1551 2.63283 -3.32661
583 1 -10.2891 10.164 0.636785 -3.41715
584 1 -8.585 11.9257 0.839706 -3.46438
585 1 -8.36281 10.0135 2.70895 -3.51263
586 1 -10.143 11.8769 2.76725 -3.3672
587 1 -6.768 10.0599 0.65423 -3.48206
588 1 -5.21562 12.0035 0.94102 -3.52862
589 1 -5.30572 10.1579 2.76061 -3.52937
590 1 -6.92397 12.0774 2.78632 -3.46152
591 1 -3.44645 10.0381 0.915886 -3.49846
592 1 -1.67589 11.8395 1.11449 -3.50507
593 1 -1.8832 10.0532 2.85157 -3.4812
594 1 -3.54189 11.8494 2.92785 -3.45722
595 1 0.16335 10.0063 0.991521 -3.5068
596 1 1.72742 11.9263 1.22205 -3.48893
597 1 1.74838 10.0187 3.00608 -3.46458
598 1 0.0115122 11.9794 3.21917 -3.49293
599 1 3.2019 10.0823 1.06523 -3.43516
600 1 5.21643 11.6369 1.19504 -3.49864
601 1 5.1936 9.90763 3.05736 -3.41074
602 1 3.49722 11.7443 3.10251 -3.49502
603 1 6.77829 9.81583 1.03204 -3.47145
604 1 8.56243 11.5706 1.10926 -3.45922
605 1 8.52704 9.86962 2.98624 -3.49395
606 1 6.79766 11.6495 3.08155 -3.46906
607 1 10.3121 9.63114 1.0419 -3.44792
608 1 11.9099 11.3598 1.18902 -2.88995
609 1 12.1367 9.49142 2.97347 -3.37667
610 1 10.3671 11.2919 3.10081 -3.29701
611 1 13.8001 9.64497 0.964985 -2.71797
612 1 -10.2215 13.8176 0.965854 -2.69727
613 1 -8.59617 13.8445 2.97782 -3.06096
614 1 -7.10594 13.9227 0.994123 -3.33826
615 1 -4.91562 15.5891 1.16466 -3.00689
616 1 -5.09191 13.6835 2.8725 -3.42704
617 1 -6.71315 15.4776 3.0705 -2.72344
618 1 -3.32225 13.6648 1.0679 -3.45912
619 1 -1.73579 15.5154 1.50682 -3.11631
620 1 -1.70726 13.6096 3.08492 -3.40993
621 1 -3.45985 15.5511 3.17365 -2.98027
622 1 -0.039321 13.6561 1.22693 -3.489
623 1 1.65413 15.4021 1.34328 -3.12255
624 1 1.83368 13.6722 3.06551 -3.44332
625 1 0.0203586 15.2045 3.34598 -3.2337
626 1 3.58703 13.7417 1.2953 -3.42153
627 1 5.34093 15.2561 1.19701 -2.95628
628 1 5.09443 13.4249 3.37216 -3.29939
629 1 3.56406 15.5258 3.1162 -2.98682
630 1 7.1122 13.4103 1.39311 -3.2796
631 1 8.61655 13.2857 3.09775 -3.04017
632 1 6.71719 14.9435 3.40528 -2.73084
633 1 10.2623 13.3567 1.34587 -2.71036
634 1 0.0454905 17.0963 1.5638 -2.30508
635 1 -5.80792 -14.677 5.07868 -2.91407
636 1 -7.59074 -14.6771 6.77772 -2.61416
637 1 -1.13552 -14.3602 5.83669 -3.00786
638 1 -2.91377 -14.3036 7.82264 -2.97231
639 1 0.31139 -14.164 3.72564 -3.11526
640 1 1.936 -14.3409 5.60498 -3.03635
641 1 0.411644 -14.5568 7.75989 -3.08559
642 1 5.49383 -14.283 5.93105 -2.95778
643 1 3.55551 -14.3759 7.67029 -3.01766
644 1 7.22875 -14.3451 7.78963 -2.67828
645 1 -12.7272 -10.9876 5.38413 -2.86898
646 1 -10.7155 -12.703 5.10079 -2.79059
647 1 -9.21085 -11.0257 5.24421 -3.31298
648 1 -9.2475 -12.8985 7.11144 -3.1097
649 1 -10.9913 -11.2272 7.21475 -3.30937
650 1 -7.93344 -12.9234 4.94894 -3.26888
651 1 -5.5363 -11.8585 5.20259 -3.49335
652 1 -5.38057 -13.8323 7.35968 -3.17463
653 1 -7.08079 -11.8118 7.18138 -3.49394
654 1 -3.65349 -13.5563 5.4972 -3.24168
655 1 -1.93012 -11.8938 5.4286 -3.44954
656 1 -1.39312 -12.5794 7.84444 -3.44336
657 1 -3.81148 -11.8741 7.18221 -3.49933
658 1 0.398204 -12.512 5.81923 -3.42268
659 1 2.14518 -12.5111 3.90813 -3.45661
660 1 2.04606 -12.5905 7.63647 -3.37598
661 1 0.383203 -10.8176 8.00732 -3.47023
662 1 3.77381 -12.6145 5.88969 -3.44667
663 1 5.59969 -10.8516 5.97144 -3.53189
664 1 5.43057 -12.7591 7.8198 -3.42154
665 1 3.8055 -10.8875 7.96356 -3.48982
666 1 7.35661 -12.5533 5.9478 -3.36203
667 1 9.0389 -10.7488 6.19595 -3.39692
668 1 9.02663 -12.5676 8.08362 -3.09097
669 1 7.18126 -10.8706 8.05242 -3.50029
670 1 10.5166 -12.5845 6.16166 -2.67461
671 1 12.2804 -10.6931 6.30557 -2.88557
672 1 10.6956 -10.8471 8.35401 -3.29433
673 1 -14.4796 -9.2377 5.59061 -2.63199
674 1 -12.7309 -7.81015 5.47202 -3.32627
675 1 -12.7133 -9.38795 7.47971 -3.36297
676 1 -14.3956 -7.65298 7.67783 -3.05058
677 1 -11.0466 -9.39163 5.343 -3.39443
678 1 -8.81757 -8.18986 5.31468 -3.50984
679 1 -8.79844 -10.0749 7.4183 -3.49116
680 1 -10.5996 -8.04438 7.47246 -3.45483
681 1 -7.02083 -9.87145 5.60188 -3.37796
682 1 -5.33445 -8.26711 5.55179 -3.46846
683 1 -5.43555 -9.97365 7.51132 -3.46503
684 1 -7.12068 -8.12511 7.55548 -3.42957
685 1 -3.57166 -10.0836 5.35053 -3.49281
686 1 -1.87209 -8.23194 5.54165 -3.48154
687 1 -1.9444 -10.213 7.48688 -3.46851
688 1 -3.59875 -8.32959 7.46307 -3.50073
689 1 -0.246698 -10.1561 5.80063 -3.41446
690 1 1.41809 -9.96636 3.63114 -3.49788
691 1 2.21012 -10.6289 6.05074 -3.48475
692 1 -0.264746 -8.34197 7.69353 -3.51363
693 1 3.78494 -10.5744 4.03757 -3.51417
694 1 5.59724 -8.85658 4.29576 -3.49911
695 1 5.51991 -9.14809 8.08198 -3.47969
696 1 3.78414 -8.84202 6.15017 -3.4702
697 1 7.38654 -8.92811 6.29256 -3.50814
698 1 9.16461 -6.92864 6.47387 -3.48326
699 1 8.80858 -9.00836 8.31942 -3.45394
700 1 7.28439 -7.23998 8.45001 -3.46389
701 1 10.6058 -8.984 6.25418 -3.32585
702 1 12.2298 -7.40434 6.43008 -3.35992
703 1 12.4808 -9.12931 8.44018 -3.26783
704 1 10.8064 -7.38369 8.40292 -3.47142
705 1 14.1383 -8.97195 6.39324 -2.67733
706 1 14.1831 -7.3933 8.37885 -3.09352
707 1 -15.993 -4.07779 5.67879 -2.94413
708 1 -16.1752 -5.81596 7.71423 -2.65746
709 1 -14.4958 -5.93656 5.62592 -3.32263
710 1 -12.2759 -4.60856 5.93864 -3.43658
711 1 -12.4665 -6.38048 7.71332 -3.4371
712 1 -14.2081 -4.38992 7.67134 -3.47273
713 1 -10.5197 -6.41521 5.65808 -3.48985
714 1 -8.81357 -4.69825 5.78036 -3.50056
715 1 -8.84434 -6.49205 7.53276 -3.39523
716 1 -10.5973 -4.76488 7.81384 -3.48913
717 1 -7.10776 -6.52268 5.6246 -3.49015
718 1 -5.51319 -4.63928 5.8205 -3.47869
719 1 -5.38129 -6.57047 7.65206 -3.4889
720 1 -7.19896 -4.76281 7.82409 -3.50406
721 1 -3.75554 -6.1861 5.60326 -3.49204
722 1 -2.14034 -6.08492 3.647 -3.44545
723 1 -1.94932 -6.47334 7.58624 -3.43162
724 1 -3.71026 -4.79854 7.77547 -3.46464
725 1 -0.358876 -8.09658 3.62783 -3.4381
726 1 1.35521 -6.48639 3.79026 -3.45402
727 1 1.36984 -8.23326 5.65323 -3.52452
728 1 -0.302774 -6.42655 5.83077 -3.43102
729 1 3.16413 -8.17119 3.74147 -3.49989
730 1 4.82156 -6.29269 3.87053 -3.42592
731 1 5.60369 -7.01206 6.48446 -3.48392
732 1 3.21759 -6.48956 5.73973 -3.49454
733 1 7.34051 -6.96241 4.60024 -3.50622
734 1 9.07612 -5.0982 4.66835 -3.48111
735 1 9.02696 -5.42197 8.78094 -3.47432
736 1 7.41637 -5.28377 6.7633 -3.46578
737 1 10.9901 -5.35612 6.55501 -3.46685
738 1 12.683 -3.55923 6.77496 -3.518
739 1 12.4044 -5.57963 8.65445 -3.46285
740 1 10.8485 -3.62372 8.61718 -3.5067