ITEM: TIMESTEP
136000
ITEM: NUMBER OF ATOMS
3804
ITEM: BOX BOUNDS ss ss pp
-1.7769247574921490e+01 1.7866064775952498e+01
-1.7789577061460623e+01 1.7316681931568901e+01
-2.9498400000000005e+00 4.6329840000000004e+01
ITEM: ATOMS id type x y z c_peratom
1 1 -5.41603 -14.4429 -2.36699 -2.99871
2 1 -7.29657 -14.4228 -0.379923 -2.75038
3 1 -1.98569 -14.7652 -2.61548 -3.06884
4 1 -3.75257 -14.7634 -0.583462 -2.95964
5 1 -0.227051 -16.3348 -2.50418 -2.53285
6 1 1.65061 -16.2014 44.9343 -2.8547
7 1 -0.231283 -14.6876 -0.528468 -3.25164
8 1 5.51813 -15.148 45.4828 -2.8716
9 1 3.73685 -15.4113 -2.11084 -2.8546
10 1 7.24418 -13.7917 0.1503 -2.72651
11 1 -12.7034 -10.6052 -2.32106 -2.8392
12 1 -10.9929 -12.5667 -2.37784 -2.68249
13 1 -9.00534 -11.0095 -2.28312 -3.45199
14 1 -9.25065 -12.8918 -0.610188 -3.05371
15 1 -10.6859 -10.9996 -0.313907 -3.30933
16 1 -7.37506 -12.826 -2.29493 -3.3199
17 1 -5.49355 -11.1851 -2.09601 -3.51306
18 1 -5.37376 -12.944 -0.314395 -3.42488
19 1 -7.33505 -11.28 -0.193651 -3.51436
20 1 -3.51132 -12.9182 -2.35904 -3.40694
21 1 -1.91718 -12.7212 44.9968 -3.49669
22 1 -2.03207 -13.0896 -0.330746 -3.40392
23 1 -3.6098 -11.1746 -0.124291 -3.47181
24 1 -0.372531 -14.7772 44.8134 -3.29606
25 1 1.56269 -12.8154 44.8867 -3.48357
26 1 1.59122 -14.7982 -2.41135 -3.16985
27 1 -0.0787099 -12.911 -2.46136 -3.53886
28 1 3.27225 -14.5722 44.8234 -3.27206
29 1 4.94963 -12.682 45.0346 -3.46928
30 1 5.48388 -13.6906 -1.63193 -3.237
31 1 3.16871 -12.9365 -2.41543 -3.51173
32 1 7.30554 -13.4088 45.7018 -3.14358
33 1 9.40504 -11.8557 45.7206 -3.20234
34 1 9.065 -12.1116 0.427421 -3.08874
35 1 7.55836 -11.9605 -1.4822 -3.37456
36 1 10.6455 -11.9688 -1.45464 -2.71717
37 1 12.7495 -10.1626 -1.28473 -2.85196
38 1 10.7427 -10.4263 0.522661 -3.30638
39 1 -14.4167 -8.82652 -2.3457 -2.69336
40 1 -12.4399 -7.62635 -2.2192 -3.42548
41 1 -12.5369 -9.31812 -0.289275 -3.29293
42 1 -14.2783 -7.44262 -0.181997 -3.09716
43 1 -10.6089 -9.15833 -2.14159 -3.45551
44 1 -8.87429 -7.48088 -1.98188 -3.464
45 1 -8.96168 -9.31211 -0.153196 -3.47259
46 1 -10.8145 -7.63958 -0.170687 -3.47613
47 1 -7.28046 -9.23152 -2.03989 -3.46522
48 1 -5.5968 -9.39351 45.3357 -3.48305
49 1 -5.46036 -9.42092 -0.137482 -3.53435
50 1 -7.18569 -7.57403 0.0348431 -3.50921
51 1 -3.67116 -11.0267 45.0623 -3.42263
52 1 -1.86855 -9.36897 45.2363 -3.49453
53 1 -1.88486 -11.188 -2.13758 -3.47934
54 1 -3.67114 -9.43441 -2.09415 -3.49313
55 1 0.0531831 -11.0022 45.1439 -3.43849
56 1 1.55275 -9.12573 45.2651 -3.47491
57 1 1.58697 -11.0985 -2.28541 -3.38474
58 1 -0.0887269 -9.45358 -1.82485 -3.46412
59 1 3.2721 -11.0713 45.1472 -3.48922
60 1 5.2289 -9.51095 45.3848 -3.44451
61 1 5.05443 -11.3118 -2.05143 -3.50725
62 1 3.30843 -9.53218 -2.00145 -3.50389
63 1 6.83749 -11.0893 45.4657 -3.38347
64 1 8.5305 -9.29247 45.4283 -3.50689
65 1 9.24065 -10.12 -1.59446 -3.41278
66 1 6.79069 -9.57058 -1.79049 -3.49451
67 1 11.2355 -10.203 46.0406 -3.285
68 1 12.9542 -8.45239 46.2545 -3.29162
69 1 12.6357 -8.71936 0.628137 -3.28923
70 1 10.943 -8.36013 -1.28987 -3.45457
71 1 14.4543 -8.40994 -0.976394 -2.66381
72 1 14.6375 -6.65876 0.732598 -3.07211
73 1 -15.8674 -3.78302 -2.09605 -3.01715
74 1 -16.0347 -5.3953 -0.201646 -2.68083
75 1 -14.424 -5.87608 -1.93557 -3.29254
76 1 -12.4122 -3.88266 -1.98811 -3.46818
77 1 -12.3491 -5.7799 -0.0879454 -3.47143
78 1 -14.2199 -3.94131 -0.131755 -3.39806
79 1 -10.7726 -5.8206 -1.91819 -3.44761
80 1 -8.71493 -5.6167 45.3316 -3.50587
81 1 -8.88009 -5.75222 0.031709 -3.51585
82 1 -10.6043 -4.00294 0.0620875 -3.44614
83 1 -7.02195 -7.41099 45.236 -3.49443
84 1 -5.39635 -5.47669 45.5038 -3.49419
85 1 -5.37881 -7.64801 -2.04122 -3.4848
86 1 -7.03431 -5.70319 -1.8996 -3.5091
87 1 -3.81389 -7.38427 45.4039 -3.48758
88 1 -2.05547 -5.70774 45.4361 -3.50301
89 1 -2.00726 -7.59534 -2.03454 -3.50572
90 1 -3.69301 -5.72084 -1.88846 -3.52123
91 1 -0.305139 -7.47488 45.301 -3.47715
92 1 1.5399 -5.77228 45.4717 -3.50445
93 1 1.6601 -7.59084 -2.02871 -3.49026
94 1 -0.29616 -5.79891 -1.84533 -3.47465
95 1 3.4961 -7.6019 45.5092 -3.47342
96 1 5.064 -5.77512 45.5105 -3.43707
97 1 5.14025 -7.60963 -2.05736 -3.44172
98 1 3.3946 -5.95185 -1.88889 -3.45991
99 1 6.76752 -7.43154 45.4773 -3.47658
100 1 8.60859 -5.70478 45.7899 -3.51049
101 1 8.61839 -7.65912 -1.82134 -3.52315
102 1 6.81524 -5.90271 -1.72891 -3.48122
103 1 10.5088 -7.66702 45.6294 -3.5279
104 1 12.2411 -5.84308 45.7854 -3.45425
105 1 12.7595 -6.79513 -1.13134 -3.43308
106 1 10.4641 -5.90573 -1.7933 -3.47282
107 1 14.6431 -6.37789 -3.08159 -3.19935
108 1 16.2781 -4.5327 -2.89112 -2.86514
109 1 16.4966 -4.84893 0.770768 -2.66194
110 1 14.7544 -4.8665 -1.04849 -3.3459
111 1 -15.9526 -0.360184 -1.73885 -3.01136
112 1 -15.8619 -2.13822 -0.0253018 -3.05357
113 1 -14.0371 -2.13625 -1.72026 -3.4058
114 1 -12.2827 -1.94331 45.5401 -3.4601
115 1 -12.3444 -2.30246 0.0831829 -3.52249
116 1 -14.0087 -0.43042 0.239314 -3.47422
117 1 -10.5422 -3.77642 45.5296 -3.51678
118 1 -8.78835 -1.89005 45.7004 -3.4823
119 1 -8.86344 -3.94608 -1.82363 -3.52559
120 1 -10.5115 -1.99798 -1.86653 -3.48672
121 1 -7.07803 -3.73824 45.4951 -3.49477
122 1 -5.3818 -1.96063 45.8588 -3.4901
123 1 -5.37714 -3.9543 -1.69222 -3.44201
124 1 -7.02102 -2.22718 -1.57029 -3.47182
125 1 -3.59661 -3.70837 45.564 -3.51453
126 1 -1.72972 -2.13046 45.7598 -3.43922
127 1 -1.91403 -3.99966 -1.74909 -3.48379
128 1 -3.60397 -2.31027 -1.56761 -3.50296
129 1 -0.0763181 -4.02229 45.7964 -3.47774
130 1 1.77509 -2.12243 45.7674 -3.43409
131 1 1.71577 -4.16137 -1.72264 -3.4887
132 1 -0.0136191 -2.3469 -1.57188 -3.51616
133 1 3.40982 -4.00945 45.6926 -3.52353
134 1 5.16625 -2.30087 45.8317 -3.4614
135 1 5.12045 -4.12233 -1.65105 -3.53982
136 1 3.35602 -2.38967 -1.43591 -3.49242
137 1 6.7829 -4.04876 45.743 -3.49733
138 1 8.79395 -2.35487 45.8259 -3.47169
139 1 8.44508 -4.09458 -1.45187 -3.45327
140 1 6.89648 -2.33401 -1.63716 -3.44868
141 1 10.6227 -4.15557 45.8144 -3.3949
142 1 12.0782 -2.3488 45.982 -3.46549
143 1 12.3678 -4.22055 -1.55014 -3.48891
144 1 10.4319 -2.43285 -1.36517 -3.50719
145 1 13.8321 -4.00405 45.8269 -3.4464
146 1 15.4557 -2.28415 46.1055 -3.18759
147 1 16.4235 -3.0343 -0.938517 -3.05909
148 1 14.0236 -2.45908 -1.22215 -3.42999
149 1 -18.0389 2.27075 41.0444 -2.62891
150 1 -15.9199 1.35284 45.5725 -3.07722
151 1 -15.9532 1.32851 0.230377 -3.13823
152 1 -14.0531 -0.121451 45.6751 -3.44116
153 1 -12.2143 1.55655 46.0148 -3.47706
154 1 -12.4183 -0.34501 -1.76457 -3.49364
155 1 -14.1231 1.43594 -1.44615 -3.4492
156 1 -10.5168 -0.233715 45.7287 -3.4493
157 1 -8.80088 1.61464 45.7382 -3.4208
158 1 -8.7693 -0.320176 -1.51954 -3.4687
159 1 -10.4483 1.30944 -1.42753 -3.48315
160 1 -7.02591 -0.127737 45.7405 -3.4698
161 1 -5.13755 1.40649 45.9301 -3.51927
162 1 -5.39114 -0.331592 -1.3561 -3.47356
163 1 -7.01693 1.42827 -1.56137 -3.49198
164 1 -3.47235 -0.510237 45.8326 -3.48621
165 1 -1.76252 1.40837 45.9422 -3.51694
166 1 -1.8416 -0.544824 -1.42113 -3.49373
167 1 -3.44239 1.29741 -1.36736 -3.51875
168 1 -0.124694 -0.432969 45.9173 -3.48459
169 1 1.67075 1.4335 45.9484 -3.39162
170 1 1.65144 -0.603087 -1.46038 -3.47776
171 1 -0.122346 1.14534 -1.36649 -3.51082
172 1 3.44253 -0.534248 45.7893 -3.43383
173 1 5.10246 1.23029 46.0897 -3.51455
174 1 5.08405 -0.639653 -1.24772 -3.48379
175 1 3.29777 1.15966 -1.27001 -3.48203
176 1 6.89688 -0.644752 45.9359 -3.48419
177 1 8.70724 1.1626 45.993 -3.51636
178 1 8.594 -0.619098 -1.34923 -3.49622
179 1 6.85126 0.992464 -1.45976 -3.47252
180 1 10.3301 -0.639511 45.9121 -3.44673
181 1 12.2465 1.1843 46.0159 -3.46594
182 1 12.1452 -0.761084 -1.27968 -3.48758
183 1 10.4563 1.00425 -1.24124 -3.48971
184 1 13.965 -0.395918 46.1059 -3.4383
185 1 15.9624 1.14342 46.3058 -3.21122
186 1 15.5129 -0.664572 -1.33208 -3.25142
187 1 13.9547 1.24866 -1.18102 -3.46857
188 1 17.3983 -0.951023 -2.68419 -2.59845
189 1 -15.7466 5.00799 45.916 -2.95681
190 1 -15.88 3.1223 -1.50966 -2.98314
191 1 -14.1062 3.15174 45.9762 -3.45139
192 1 -12.2919 4.87396 46.0322 -3.48157
193 1 -12.2658 3.01247 -1.28488 -3.41848
194 1 -13.8503 4.70775 -1.34268 -3.42732
195 1 -10.4188 3.19138 45.8159 -3.41739
196 1 -8.77441 5.13987 46.0451 -3.49273
197 1 -8.809 3.18361 -1.43626 -3.51085
198 1 -10.5154 4.89879 -1.35992 -3.52252
199 1 -6.9121 3.28356 45.9784 -3.54639
200 1 -5.08677 5.01038 46.1597 -3.43889
201 1 -5.07885 3.1956 -1.25283 -3.44076
202 1 -6.84383 4.78497 -1.19938 -3.4889
203 1 -3.37183 3.23305 46.112 -3.48736
204 1 -1.53381 5.05534 46.1036 -3.50252
205 1 -1.64001 3.0903 -1.19311 -3.49179
206 1 -3.42578 4.83641 -1.19921 -3.42618
207 1 0.207639 3.12505 46.076 -3.42957
208 1 1.86684 4.98783 46.1694 -3.48183
209 1 1.70946 3.06717 -1.21922 -3.4994
210 1 0.0321655 4.93153 -1.22949 -3.50843
211 1 3.33169 3.11022 46.2192 -3.44526
212 1 5.32802 4.65475 46.3114 -3.46375
213 1 5.11399 2.82893 -1.30755 -3.50163
214 1 3.45826 4.84395 -1.1615 -3.52811
215 1 7.02021 2.97003 46.0746 -3.46158
216 1 8.79559 4.62347 -3.04531 -3.46755
217 1 8.74214 2.72928 -1.30024 -3.52091
218 1 6.9104 4.62756 -1.24331 -3.4461
219 1 10.545 2.91677 46.1461 -3.44713
220 1 12.3327 4.41767 -3.02855 -3.47204
221 1 12.2252 2.8809 -1.14769 -3.47624
222 1 10.4156 4.62055 -0.98957 -3.49923
223 1 14.1916 2.78539 46.1912 -3.41668
224 1 15.7595 4.52005 -2.85559 -2.96551
225 1 16.0881 2.59005 -0.920888 -3.09916
226 1 14.1653 4.4092 -0.926519 -3.43617
227 1 -15.5805 6.6237 -1.27907 -2.89475
228 1 -13.811 6.81485 46.1572 -3.39272
229 1 -12.1147 8.52994 46.1605 -3.42274
230 1 -12.259 6.73243 -1.13278 -3.51811
231 1 -13.9599 8.4987 -1.22172 -3.14292
232 1 -10.6142 6.70328 46.0114 -3.45183
233 1 -8.57021 8.43524 46.283 -3.54464
234 1 -8.6458 6.68704 -1.1536 -3.50345
235 1 -10.4045 8.42257 -1.06961 -3.49651
236 1 -6.77369 6.62934 46.3006 -3.46372
237 1 -5.24475 8.54727 -3.08408 -3.4866
238 1 -5.10698 6.52317 -1.1423 -3.48487
239 1 -6.83098 8.40171 -1.00285 -3.45372
240 1 -3.45369 6.86039 -2.9889 -3.50999
241 1 -1.68183 8.55626 -2.8863 -3.49354
242 1 -1.80257 6.69988 -1.07926 -3.52688
243 1 -3.45509 8.65565 -1.0264 -3.51098
244 1 0.110309 6.84823 46.3742 -3.49159
245 1 1.83057 8.55757 -2.82825 -3.50697
246 1 1.81959 6.7696 -0.924684 -3.47257
247 1 0.0373066 8.45531 -0.962609 -3.48019
248 1 3.64248 6.67797 46.2886 -3.49696
249 1 5.35561 8.31662 -2.88386 -3.47496
250 1 5.40873 6.45779 -0.995408 -3.50874
251 1 3.52766 8.40518 -0.931571 -3.4601
252 1 7.17435 6.61033 -2.83098 -3.51069
253 1 8.91922 8.29616 -2.72258 -3.47775
254 1 8.69577 6.38795 -0.936822 -3.48396
255 1 7.0653 8.25074 -0.783379 -3.49837
256 1 10.4061 6.352 -2.98509 -3.49413
257 1 12.3676 8.08354 -2.90651 -3.44301
258 1 12.4 6.17965 -0.995815 -3.46553
259 1 10.7402 7.92158 -0.827793 -3.4747
260 1 14.1512 6.42073 -2.86707 -3.30346
261 1 15.7884 6.16546 -0.994546 -2.7002
262 1 14.1164 7.84807 -0.765288 -3.1096
263 1 -14.5371 9.11562 45.6194 -2.80805
264 1 -12.6679 10.884 46.0486 -2.86424
265 1 -12.1584 10.045 -0.914448 -3.25129
266 1 -10.2563 10.2061 46.4208 -3.45211
267 1 -8.5475 12.0791 -2.91446 -3.3161
268 1 -8.63216 10.3022 -1.0886 -3.49679
269 1 -10.3611 11.9744 -0.915884 -3.22591
270 1 -6.88185 10.359 46.3957 -3.4356
271 1 -5.2076 12.2194 -2.82977 -3.52185
272 1 -5.25561 10.2809 -0.807653 -3.43885
273 1 -6.92972 12.143 -0.95628 -3.48583
274 1 -3.53513 10.3418 -2.94655 -3.51287
275 1 -1.68641 12.1869 -2.65551 -3.47346
276 1 -1.61913 10.2301 -0.965583 -3.45176
277 1 -3.40238 11.9458 -0.879763 -3.50691
278 1 0.119268 10.2203 -2.78783 -3.48209
279 1 1.92194 11.9334 -2.72404 -3.51749
280 1 1.84001 10.0726 -0.730642 -3.45299
281 1 0.0912909 11.9472 -0.687571 -3.51288
282 1 3.72909 10.2804 -2.71538 -3.49821
283 1 5.49787 11.942 -2.54145 -3.45773
284 1 5.34736 9.94723 -0.859288 -3.48981
285 1 3.56079 11.7946 -0.681663 -3.50262
286 1 7.09652 10.0437 -2.71992 -3.51202
287 1 9.17557 11.7284 -2.56384 -3.45041
288 1 9.04062 9.99213 -0.818662 -3.5122
289 1 7.18749 11.7143 -0.634637 -3.53447
290 1 10.7064 9.92453 -2.69193 -3.43126
291 1 12.5988 11.5381 -2.5095 -2.85042
292 1 12.2948 9.72092 -0.810117 -3.32199
293 1 10.8416 11.7814 -0.584532 -3.28452
294 1 14.036 9.73297 -2.63357 -2.72399
295 1 -10.8497 12.578 45.9216 -2.73832
296 1 -8.76655 13.7175 -0.62603 -2.9404
297 1 -7.06323 14.0131 -2.91944 -3.17439
298 1 -5.09098 15.5755 -2.46451 -2.854
299 1 -5.17122 13.7393 -0.810145 -3.39601
300 1 -6.95605 15.284 -0.746147 -2.70499
301 1 -3.37826 13.9246 -2.58243 -3.42362
302 1 -1.64888 15.7424 -2.54507 -3.0914
303 1 -1.78187 13.7434 -0.652918 -3.41424
304 1 -3.31371 15.6552 -0.684086 -2.99791
305 1 0.174776 13.8766 -2.5251 -3.53771
306 1 2.15342 15.4236 -2.53077 -3.04317
307 1 1.85452 13.7019 -0.749234 -3.4654
308 1 0.0164458 15.3537 -0.404592 -3.21529
309 1 3.67903 13.6839 -2.55435 -3.41965
310 1 5.47487 15.4538 -2.50436 -2.98594
311 1 5.24466 13.4599 -0.67866 -3.4199
312 1 3.72076 15.4226 -0.438026 -2.99281
313 1 7.22227 13.5893 -2.47606 -3.32985
314 1 9.18098 13.4859 -0.534066 -3.05081
315 1 7.15803 14.99 -0.534536 -2.75039
316 1 10.8859 13.4327 -2.60663 -2.6949
317 1 0.406916 16.9393 -2.40491 -2.39031
318 1 -5.62241 -14.6949 1.47221 -2.972
319 1 -7.21739 -14.814 3.34984 -2.76889
320 1 -1.89243 -14.9367 1.35021 -2.93234
321 1 -4.24537 -14.9336 3.43529 -2.85443
322 1 2.16383 -15.5762 -0.161536 -2.94705
323 1 3.52693 -15.5659 1.78237 -2.58374
324 1 0.482619 -15.5978 1.84298 -2.76057
325 1 5.48175 -13.9457 1.95494 -3.09707
326 1 3.81378 -14.0703 3.897 -3.17203
327 1 6.87062 -13.8662 4.04255 -2.71413
328 1 -12.4914 -10.9063 1.62762 -2.87951
329 1 -10.8133 -12.8233 1.563 -2.68618
330 1 -9.12563 -11.1653 1.53596 -3.40469
331 1 -9.22089 -13.254 3.38963 -3.06097
332 1 -10.7973 -11.1805 3.64398 -3.36359
333 1 -7.36349 -12.8823 1.5662 -3.3415
334 1 -5.44931 -11.3015 1.65787 -3.50811
335 1 -5.70815 -12.9992 3.45987 -3.42605
336 1 -7.53624 -11.3763 3.53885 -3.51953
337 1 -3.78423 -13.119 1.59003 -3.4637
338 1 -1.8937 -11.4884 1.83074 -3.43729
339 1 -2.0961 -13.6566 3.48719 -3.31985
340 1 -3.64723 -11.5717 3.6379 -3.50852
341 1 -0.208642 -13.2548 1.56142 -3.36541
342 1 1.62466 -13.2491 -0.466233 -3.38834
343 1 2.07389 -13.7398 1.96043 -3.29382
344 1 -0.371231 -11.6779 3.58951 -3.43914
345 1 3.8778 -13.825 0.189851 -3.25967
346 1 5.6122 -11.9719 0.338812 -3.46229
347 1 5.46641 -12.1887 4.31607 -3.33035
348 1 3.75337 -12.0262 2.38525 -3.48498
349 1 7.24803 -12.1622 2.3159 -3.34533
350 1 9.12871 -10.4997 2.4809 -3.41806
351 1 8.94373 -12.2862 4.1633 -3.10402
352 1 7.28655 -10.5042 4.38041 -3.48044
353 1 10.7927 -12.1338 2.44759 -2.66971
354 1 12.6026 -10.4898 2.28571 -2.77898
355 1 10.7788 -10.488 4.5335 -3.3011
356 1 -14.3302 -9.18261 1.50902 -2.71139
357 1 -12.5839 -7.56397 1.78405 -3.42485
358 1 -12.7565 -9.56537 3.62857 -3.29839
359 1 -14.4041 -7.7048 3.65365 -3.12867
360 1 -10.8263 -9.24999 1.75729 -3.47776
361 1 -8.89435 -7.73349 1.83444 -3.45533
362 1 -9.09031 -9.40984 3.67932 -3.47592
363 1 -10.9828 -7.76871 3.84749 -3.51559
364 1 -7.32931 -9.53871 1.6548 -3.47271
365 1 -5.39977 -7.8041 1.80963 -3.52352
366 1 -5.59996 -9.7565 3.60244 -3.51771
367 1 -7.15699 -7.97253 3.58149 -3.44787
368 1 -3.56948 -9.67522 1.87218 -3.48529
369 1 -1.96832 -9.46524 -0.132332 -3.49461
370 1 -1.82678 -9.84746 3.63836 -3.41413
371 1 -3.75359 -8.08263 3.77508 -3.52541
372 1 -0.202162 -11.527 -0.203321 -3.52948
373 1 1.55005 -9.56162 0.0536045 -3.47099
374 1 1.38413 -11.3936 1.87576 -3.48234
375 1 -0.349513 -9.55734 1.80606 -3.4735
376 1 3.2644 -11.4734 -0.182584 -3.50954
377 1 5.01624 -9.50087 -0.149927 -3.4466
378 1 5.57417 -10.4454 2.50224 -3.48077
379 1 3.0458 -9.52877 1.8884 -3.40485
380 1 7.32448 -10.225 0.634031 -3.47491
381 1 9.10032 -8.65016 0.555012 -3.48355
382 1 9.0142 -8.88557 4.56276 -3.46218
383 1 7.37535 -8.52406 2.55691 -3.51582
384 1 10.7982 -8.57789 2.52287 -3.53527
385 1 12.6849 -6.84693 2.59488 -3.42674
386 1 12.5585 -8.66963 4.41927 -3.27665
387 1 10.7816 -7.05177 4.69715 -3.46679
388 1 14.1739 -8.70804 2.65563 -2.67367
389 1 14.3902 -6.90601 4.69605 -3.08424
390 1 -15.831 -3.96584 1.89252 -3.00465
391 1 -15.9886 -5.70897 3.76624 -2.74334
392 1 -14.337 -5.85103 1.83344 -3.34865
393 1 -12.4842 -4.05566 2.00833 -3.51783
394 1 -12.7759 -5.85047 3.84481 -3.46502
395 1 -14.2231 -3.96525 3.70514 -3.37745
396 1 -10.7543 -6.01633 1.96825 -3.51923
397 1 -8.83855 -4.14093 2.02104 -3.51189
398 1 -8.91813 -6.00965 3.76802 -3.47653
399 1 -10.7771 -4.30178 3.93684 -3.52052
400 1 -7.12028 -5.90409 1.97886 -3.49932
401 1 -5.39762 -5.80298 0.0517922 -3.49751
402 1 -5.42867 -6.25219 3.96849 -3.50008
403 1 -7.20342 -4.2966 3.95634 -3.48423
404 1 -3.78962 -7.58362 -0.0240315 -3.48925
405 1 -1.81088 -6.00083 0.0508731 -3.46245
406 1 -2.09241 -7.75263 1.94786 -3.51532
407 1 -3.783 -5.95949 2.13287 -3.4941
408 1 -0.17928 -7.66535 0.0552534 -3.42474
409 1 1.5504 -6.02092 0.0750986 -3.50169
410 1 1.38293 -7.92701 2.03506 -3.42905
411 1 -0.217265 -6.03586 1.99814 -3.46603
412 1 3.36582 -7.78654 -0.124328 -3.47776
413 1 5.04099 -6.04784 0.101876 -3.50758
414 1 5.06303 -7.99799 1.98005 -3.49023
415 1 3.40612 -6.24289 2.05765 -3.52365
416 1 6.77219 -7.84 0.0526296 -3.48614
417 1 8.51378 -6.10388 0.400713 -3.49771
418 1 9.07615 -6.7907 2.69477 -3.45423
419 1 6.70239 -6.1547 2.04969 -3.49537
420 1 10.9584 -6.81981 0.615595 -3.50096
421 1 12.778 -5.04769 0.790148 -3.48293
422 1 12.5319 -5.40995 4.82765 -3.45712
423 1 10.9391 -5.18002 2.71378 -3.48807
424 1 14.5726 -5.26602 2.75676 -3.29109
425 1 16.4047 -3.46746 3.04782 -2.94468
426 1 16.1093 -5.28634 5.03866 -2.64634
427 1 14.4821 -3.58709 4.87669 -3.44419
428 1 -15.8862 -0.533844 2.01012 -3.12271
429 1 -16.0165 -2.25915 3.88632 -3.02651
430 1 -14.1469 -2.20937 2.04119 -3.40049
431 1 -12.2663 -0.608964 2.04503 -3.49883
432 1 -12.3606 -2.40187 4.04271 -3.4983
433 1 -14.1022 -0.707611 3.86342 -3.41997
434 1 -10.6685 -2.42128 2.17521 -3.48453
435 1 -8.9725 -2.29882 0.0878017 -3.47617
436 1 -8.95601 -2.46405 4.00894 -3.52435
437 1 -10.6235 -0.578853 3.90246 -3.42647
438 1 -7.15064 -4.0312 0.0783084 -3.49604
439 1 -5.3702 -2.29494 0.253805 -3.45868
440 1 -5.48135 -4.22963 2.20416 -3.42255
441 1 -7.05321 -2.46052 2.16758 -3.49401
442 1 -3.5693 -4.12091 0.259231 -3.5075
443 1 -1.86664 -2.34062 0.267521 -3.45276
444 1 -1.81295 -4.33358 2.14904 -3.48776
445 1 -3.75505 -2.55289 2.05189 -3.45923
446 1 -0.0670679 -4.13237 0.133825 -3.54789
447 1 1.74482 -2.38034 0.647054 -3.45628
448 1 1.65786 -4.4815 2.25053 -3.50851
449 1 0.018109 -2.6744 2.29467 -3.45165
450 1 3.32795 -4.30098 0.28567 -3.50751
451 1 4.9932 -2.51199 0.462246 -3.50553
452 1 4.98874 -4.36367 2.21743 -3.46455
453 1 3.36993 -2.68498 2.55482 -3.42831
454 1 6.73306 -4.17753 0.355312 -3.49861
455 1 8.57631 -2.5494 0.453386 -3.48172
456 1 8.66876 -4.36333 2.22362 -3.47713
457 1 6.86564 -2.55697 2.40699 -3.53032
458 1 10.4652 -4.34584 0.290943 -3.51083
459 1 12.301 -2.46705 0.656158 -3.46315
460 1 12.9091 -3.53035 2.99503 -3.50679
461 1 10.4059 -2.70101 2.48092 -3.48206
462 1 14.5643 -3.3752 1.14174 -3.44662
463 1 16.3488 -1.61481 1.17885 -3.07554
464 1 16.4009 -1.87516 5.10446 -2.98972
465 1 14.6532 -1.58951 3.16711 -3.49097
466 1 -17.4994 1.28608 2.31484 -2.49801
467 1 -15.9602 3.09625 2.38618 -3.21541
468 1 -15.8001 1.05545 4.17094 -3.2598
469 1 -14.2497 1.17395 2.2251 -3.51254
470 1 -12.3699 1.29287 0.453932 -3.48579
471 1 -12.4046 1.0528 4.15542 -3.48988
472 1 -14.0528 2.78813 4.19635 -3.41596
473 1 -10.5238 -0.447919 0.293853 -3.49079
474 1 -8.67876 1.27972 0.419903 -3.49861
475 1 -8.92707 -0.510685 2.13497 -3.50597
476 1 -10.5813 1.28798 2.34424 -3.48852
477 1 -6.99075 -0.591401 0.440365 -3.48163
478 1 -5.08118 1.17817 0.533536 -3.48602
479 1 -5.36035 -0.689508 2.36358 -3.50727
480 1 -7.06022 1.26434 2.36733 -3.47036
481 1 -3.4902 -0.653933 0.558133 -3.44901
482 1 -1.70841 1.00382 0.654796 -3.50795
483 1 -1.66286 -0.895714 2.39669 -3.50723
484 1 -3.51162 0.93542 2.53284 -3.51468
485 1 -0.0396442 -0.775972 0.533045 -3.47165
486 1 1.61651 1.02443 0.749813 -3.47321
487 1 1.80009 -0.72606 2.58869 -3.50315
488 1 -0.0830247 1.06988 2.58142 -3.4886
489 1 3.32261 -0.565805 0.484833 -3.39374
490 1 5.01682 1.06981 0.582094 -3.48447
491 1 5.05149 -0.792621 2.52621 -3.54864
492 1 3.3658 1.06176 2.67164 -3.42433
493 1 6.8769 -0.776606 0.585346 -3.52208
494 1 8.60036 1.04902 0.543694 -3.50041
495 1 8.67803 -0.746836 2.49142 -3.47513
496 1 6.87251 0.943571 2.49153 -3.52411
497 1 10.4168 -0.730339 0.534963 -3.50829
498 1 12.273 0.94655 0.647488 -3.5054
499 1 12.1965 -0.847634 2.6721 -3.50579
500 1 10.3159 0.933841 2.67923 -3.47838
501 1 14.02 -0.903922 0.749307 -3.41182
502 1 15.7107 0.766082 0.891424 -3.19967
503 1 16.3745 0.11972 3.28188 -2.97977
504 1 14.1877 0.988746 2.65202 -3.39877
505 1 17.5366 0.556584 -0.743378 -2.52882
506 1 -15.8036 4.80531 0.512332 -2.96006
507 1 -15.6513 4.50574 4.55197 -3.08789
508 1 -14.0978 3.10788 0.487556 -3.47604
509 1 -12.2541 4.87158 0.634919 -3.50627
510 1 -12.4187 2.92189 2.48017 -3.4575
511 1 -14.0041 4.72087 2.60701 -3.43465
512 1 -10.5438 3.02246 0.490766 -3.51319
513 1 -8.79306 4.85371 0.611606 -3.50561
514 1 -8.75546 2.94263 2.31266 -3.44937
515 1 -10.5914 4.6303 2.44133 -3.52363
516 1 -6.89065 3.0245 0.591199 -3.49407
517 1 -5.11472 4.66438 0.690302 -3.48833
518 1 -5.25623 2.77768 2.47877 -3.4935
519 1 -7.09274 4.59924 2.54508 -3.49559
520 1 -3.41223 2.92152 0.742111 -3.49368
521 1 -1.7567 4.70239 0.743023 -3.51331
522 1 -1.77482 2.77206 2.76524 -3.46337
523 1 -3.51143 4.63944 2.78611 -3.52949
524 1 -0.0484 2.82492 0.69152 -3.4968
525 1 1.62769 4.74923 0.927722 -3.48383
526 1 1.65611 2.83728 2.64762 -3.46637
527 1 -0.129426 4.62044 2.7895 -3.51396
528 1 3.35154 2.87979 0.799763 -3.52276
529 1 5.17318 4.58773 0.774629 -3.48635
530 1 5.02332 2.7141 2.65532 -3.47251
531 1 3.23085 4.60206 2.71066 -3.46179
532 1 6.77142 2.86999 0.629644 -3.46496
533 1 8.58537 4.49162 0.660979 -3.44562
534 1 8.61926 2.76919 2.59268 -3.47686
535 1 6.80888 4.41015 2.84186 -3.47343
536 1 10.4921 2.59793 0.755596 -3.49498
537 1 12.2161 4.32135 1.0349 -3.47841
538 1 12.2868 2.53303 2.74119 -3.46616
539 1 10.4744 4.32477 2.87622 -3.46853
540 1 14.0197 2.68263 0.834449 -3.4479
541 1 15.9314 4.32625 0.972806 -2.9648
542 1 16.0614 2.65713 2.86073 -3.10427
543 1 13.9859 4.14181 2.82953 -3.46288
544 1 -15.6697 6.50488 2.57854 -2.70029
545 1 -13.9525 6.58606 0.741029 -3.37063
546 1 -12.2646 8.34774 0.913866 -3.40874
547 1 -12.3545 6.49803 2.73705 -3.52465
548 1 -14.1863 8.40482 2.76976 -3.00831
549 1 -10.4775 6.64561 0.818405 -3.50659
550 1 -8.62285 8.35458 0.815144 -3.50371
551 1 -8.77739 6.42405 2.60822 -3.51626
552 1 -10.5929 8.27261 2.76641 -3.49379
553 1 -7.00438 6.47258 0.705391 -3.51291
554 1 -5.32221 8.40142 0.716597 -3.40069
555 1 -5.28401 6.42789 2.63197 -3.52018
556 1 -7.01465 8.21857 2.74591 -3.51661
557 1 -3.50667 6.67686 0.772403 -3.45847
558 1 -1.83216 8.24605 0.985612 -3.45428
559 1 -1.71967 6.44848 2.83909 -3.48791
560 1 -3.44728 8.12381 2.8733 -3.47342
561 1 -0.0731705 6.53379 0.895535 -3.50354
562 1 1.72387 8.39375 0.970338 -3.4742
563 1 1.64222 6.42315 2.82252 -3.51561
564 1 -0.0181404 8.23042 3.10184 -3.45299
565 1 3.59566 6.50812 0.867817 -3.49335
566 1 5.26585 8.14329 1.02714 -3.46015
567 1 5.30528 6.33036 2.84744 -3.47897
568 1 3.58037 8.18817 2.84196 -3.50104
569 1 6.97466 6.25901 1.02956 -3.51424
570 1 8.8386 8.02998 1.11558 -3.46247
571 1 8.65246 6.28752 2.98559 -3.46718
572 1 7.01069 7.99084 2.93917 -3.45181
573 1 10.3777 6.23075 1.05768 -3.47948
574 1 12.4846 7.90191 1.15582 -3.39351
575 1 12.3066 5.9755 3.0746 -3.49848
576 1 10.5679 7.94635 3.18329 -3.51557
577 1 14.1133 5.95225 1.04946 -3.38328
578 1 15.9788 5.66122 2.93112 -2.71018
579 1 14.177 7.62958 2.89365 -3.0791
580 1 -14.0594 9.80739 0.90968 -2.67228
581 1 -12.1891 11.6735 1.06694 -2.85542
582 1 -12.2494 10.0716 2.79414 -3.28573
583 1 -10.3172 10.0344 0.982887 -3.47799
584 1 -8.79119 11.8262 1.2492 -3.38947
585 1 -8.77747 9.91964 2.99562 -3.48744
586 1 -10.5991 11.8125 2.94527 -3.28202
587 1 -7.0293 10.2705 0.954113 -3.52075
588 1 -5.1929 12.0556 1.12429 -3.47899
589 1 -5.21792 9.98911 2.94812 -3.52363
590 1 -7.01134 11.6741 3.08376 -3.48707
591 1 -3.64863 10.094 1.0067 -3.46248
592 1 -1.82751 11.7901 1.13564 -3.51319
593 1 -1.80778 9.97566 2.9688 -3.5082
594 1 -3.43441 11.9191 3.08915 -3.49662
595 1 0.0197165 10.0371 1.30032 -3.47366
596 1 1.74942 11.812 1.16976 -3.52343
597 1 1.76347 9.86327 3.17136 -3.47897
598 1 0.0443075 11.7159 3.23426 -3.50359
599 1 3.63455 9.97018 1.18205 -3.47557
600 1 5.28833 11.6633 1.25455 -3.4918
601 1 5.41937 9.80958 3.18235 -3.48277
602 1 3.5479 11.6801 3.075 -3.48218
603 1 7.07425 9.85268 1.1774 -3.51681
604 1 8.93323 11.5121 1.14784 -3.45967
605 1 8.77943 9.84348 3.05878 -3.50378
606 1 7.07917 11.5891 3.08929 -3.52161
607 1 10.6541 9.54303 1.02565 -3.4391
608 1 12.527 11.1455 1.24667 -2.90137
609 1 12.5142 9.51259 3.10645 -3.27464
610 1 10.7812 11.1102 3.12469 -3.30136
611 1 14.2983 9.31552 1.20306 -2.65145
612 1 -10.5473 13.5489 1.11983 -2.66345
613 1 -8.71581 13.4279 3.16261 -3.07569
614 1 -6.98871 13.5642 1.25437 -3.34827
615 1 -5.29436 15.4356 1.2767 -2.92684
616 1 -5.3569 13.5247 3.12502 -3.41656
617 1 -7.1516 15.0856 3.363 -2.63163
618 1 -3.44252 13.7544 1.03751 -3.40911
619 1 -1.73046 15.4224 1.40552 -3.07625
620 1 -1.63741 13.4405 3.2853 -3.42464
621 1 -3.56223 15.2036 3.27984 -3.00233
622 1 -0.142519 13.5741 1.26567 -3.46848
623 1 1.97756 15.1413 1.48524 -3.10734
624 1 1.78705 13.4701 3.47692 -3.43597
625 1 0.155924 15.2086 3.37249 -3.16943
626 1 3.61723 13.5521 1.31834 -3.37588
627 1 5.4037 15.1503 1.45395 -2.96488
628 1 5.23013 13.2932 3.2653 -3.31415
629 1 3.54031 15.2281 3.48889 -2.97116
630 1 7.06159 13.3289 1.24794 -3.24325
631 1 9.11951 13.0976 3.3266 -3.05006
632 1 7.27525 14.5221 3.15504 -2.71351
633 1 10.7265 13.0952 1.53026 -2.69518
634 1 0.159801 16.8489 1.57115 -2.34043
635 1 -5.93046 -14.9144 5.3464 -2.83293
636 1 -7.65831 -14.6049 7.2173 -2.60864
637 1 -1.44257 -14.0365 5.85729 -2.99848
638 1 -3.23344 -14.09 7.6229 -2.9981
639 1 0.421579 -14.1229 3.93839 -3.13522
640 1 2.1906 -14.2383 5.90353 -2.94789
641 1 0.230989 -14.3263 7.84789 -3.0625
642 1 5.36807 -14.0635 6.11394 -2.9873
643 1 3.9093 -14.1287 8.07752 -3.01539
644 1 7.0103 -14.3277 8.15389 -2.68795
645 1 -12.7088 -11.2452 5.43706 -2.86691
646 1 -10.9509 -12.9732 5.38743 -2.75145
647 1 -9.16848 -11.2921 5.48569 -3.41708
648 1 -9.42397 -13.1301 7.20906 -3.00974
649 1 -11.104 -11.5113 7.4532 -3.283
650 1 -7.6202 -13.2261 5.25975 -3.31793
651 1 -5.70086 -11.5741 5.54169 -3.48407
652 1 -5.68423 -13.3285 7.31942 -3.27519
653 1 -7.47142 -11.683 7.36518 -3.53236
654 1 -4.05535 -13.308 5.36861 -3.34137
655 1 -2.09464 -11.6726 5.58473 -3.45348
656 1 -1.49825 -12.4383 7.90503 -3.45891
657 1 -3.94072 -11.6524 7.57162 -3.51067
658 1 0.25443 -12.2856 6.11188 -3.46142
659 1 2.03846 -12.2662 4.34169 -3.47607
660 1 2.07673 -12.5982 8.19067 -3.40601
661 1 0.308958 -10.6124 8.19094 -3.5083
662 1 3.76757 -12.3219 6.15969 -3.41841
663 1 5.5391 -10.5626 6.26691 -3.51611
664 1 5.50976 -12.3544 8.06756 -3.36873
665 1 3.78324 -10.8518 8.3271 -3.45249
666 1 7.46723 -12.7115 6.20342 -3.31189
667 1 8.95658 -10.5838 6.47482 -3.4678
668 1 9.0863 -12.5833 8.38577 -3.0064
669 1 7.30493 -10.7512 8.26547 -3.46464
670 1 10.4278 -12.5176 6.32388 -2.68217
671 1 12.3234 -10.576 6.48754 -2.80075
672 1 10.5726 -10.6952 8.36485 -3.3088
673 1 -14.453 -9.53903 5.46696 -2.69734
674 1 -12.6923 -7.82805 5.63484 -3.39645
675 1 -12.9415 -9.70272 7.44061 -3.29338
676 1 -14.4339 -7.80461 7.50728 -3.0938
677 1 -10.8931 -9.69292 5.59974 -3.45105
678 1 -9.06623 -8.04173 5.72383 -3.47315
679 1 -9.2176 -9.82825 7.65803 -3.54699
680 1 -11.131 -8.06285 7.63714 -3.49996
681 1 -7.30256 -9.73544 5.65793 -3.48488
682 1 -5.44868 -8.09933 5.74174 -3.51768
683 1 -5.67313 -9.89004 7.5171 -3.5117
684 1 -7.34503 -7.99314 7.55917 -3.47668
685 1 -3.8024 -10.0246 5.52172 -3.48805
686 1 -2.10945 -8.019 5.80455 -3.5031
687 1 -2.05076 -10.0114 7.64539 -3.48745
688 1 -3.70902 -8.21336 7.61915 -3.4983
689 1 -0.366595 -9.82953 5.74534 -3.51513
690 1 1.38034 -9.78886 3.84878 -3.55648
691 1 2.11279 -10.5241 6.27393 -3.47596
692 1 -0.255396 -8.1672 7.70706 -3.51703
693 1 3.72614 -10.3785 4.29985 -3.48866
694 1 5.51655 -8.65077 4.48806 -3.49136
695 1 5.52696 -9.04713 8.24651 -3.5279
696 1 3.75682 -8.81076 6.33998 -3.43682
697 1 7.20716 -8.78572 6.43713 -3.48248
698 1 9.11951 -7.08527 6.60387 -3.49799
699 1 8.9114 -8.86928 8.36584 -3.42603
700 1 7.28663 -7.28993 8.49991 -3.45705
701 1 10.8235 -8.76754 6.53437 -3.45005
702 1 12.6002 -6.85254 6.74711 -3.30218
703 1 12.4709 -9.02024 8.6929 -3.26567
704 1 10.742 -7.27415 8.57761 -3.4832
705 1 14.0532 -8.67735 6.55734 -2.73813
706 1 14.2937 -7.20362 8.566 -3.10078
707 1 -15.9052 -4.2068 5.76504 -2.99863
708 1 -16.1076 -5.78391 7.86481 -2.70673
709 1 -14.324 -6.08107 5.66313 -3.31277
710 1 -12.5527 -4.15896 5.80675 -3.51864
711 1 -12.7088 -6.20695 7.81883 -3.42666
712 1 -14.2721 -4.29307 7.78775 -3.42805
713 1 -11.071 -6.1529 5.74083 -3.45939
714 1 -9.01902 -4.63177 5.75079 -3.50153
715 1 -9.12885 -6.39243 7.7155 -3.49207
716 1 -10.8241 -4.62733 7.77661 -3.49331
717 1 -7.27439 -6.3983 5.72732 -3.47557
718 1 -5.56124 -4.53119 5.82256 -3.47702
719 1 -5.43248 -6.39788 7.87446 -3.48362
720 1 -7.31359 -4.69085 7.60701 -3.46723
721 1 -3.79276 -6.21121 5.79789 -3.47988
722 1 -1.93091 -6.13902 3.98301 -3.49863
723 1 -1.9862 -6.37366 7.82936 -3.47583
724 1 -3.62496 -4.72812 7.7508 -3.44193
725 1 -0.283642 -7.8929 3.93319 -3.49315
726 1 1.56061 -6.25612 4.0807 -3.51836
727 1 1.43031 -8.17824 5.83783 -3.47532
728 1 -0.307077 -6.30202 5.86232 -3.49496
729 1 3.22184 -8.07606 3.81822 -3.45474
730 1 4.92995 -6.33943 4.11726 -3.48574
731 1 5.46966 -7.06175 6.6604 -3.49644
732 1 3.18516 -6.51451 5.96875 -3.46009
733 1 7.26724 -6.98728 4.72579 -3.49557
734 1 9.10505 -5.12947 4.70006 -3.4713
735 1 9.1217 -5.44657 8.508 -3.4977
736 1 7.2987 -5.35969 6.80888 -3.50701
737 1 10.7488 -5.02827 6.63164 -3.42431
738 1 12.6258 -3.4936 6.72058 -3.51533
739 1 12.527 -5.45334 8.54644 -3.44277
740 1 10.7962 -3.65212 8.73176 -3.51494