ITEM: TIMESTEP
36000
ITEM: NUMBER OF ATOMS
3804
ITEM: BOX BOUNDS ss ss pp
-1.7905686663016319e+01 1.7895231063492691e+01
-1.7798437859613877e+01 1.7784110138697226e+01
-7.8083999999999998e-01 4.4160840000000000e+01
ITEM: ATOMS id type x y z c_peratom
1 1 -5.44057 -16.1177 44.0352 -2.97694
2 1 -7.09649 -15.9364 0.996449 -2.77567
3 1 -1.79182 -16.2789 44.0966 -3.13673
4 1 -3.80087 -16.2223 0.851455 -3.02145
5 1 0.198691 -17.7324 -0.945784 -2.37253
6 1 1.89776 -16.0503 -0.754273 -3.10683
7 1 0.128913 -16.3242 1.06643 -3.19771
8 1 5.25301 -16.0547 -0.832234 -3.00063
9 1 3.5948 -16.1685 0.992775 -3.04263
10 1 6.88812 -15.8499 0.963165 -2.72902
11 1 -12.4473 -12.4424 44.0036 -2.85409
12 1 -10.5556 -14.1414 44.0828 -2.75208
13 1 -8.88392 -12.4219 44.0438 -3.43779
14 1 -8.97392 -14.3609 1.11195 -3.11217
15 1 -10.7965 -12.5313 1.11232 -3.3085
16 1 -7.0807 -14.2563 44.1301 -3.36739
17 1 -5.3486 -12.4727 -0.811344 -3.53314
18 1 -5.38923 -14.2009 0.964424 -3.43127
19 1 -7.19324 -12.55 1.00886 -3.52523
20 1 -3.60597 -14.3514 -0.925724 -3.49515
21 1 -1.8127 -12.5264 44.086 -3.51537
22 1 -1.83462 -14.5502 0.898606 -3.48947
23 1 -3.53702 -12.6936 1.05502 -3.51334
24 1 0.10265 -14.5093 -0.85493 -3.48784
25 1 1.66132 -12.5553 44.2323 -3.50097
26 1 1.77188 -14.4733 1.04708 -3.46183
27 1 -0.0546914 -12.6067 0.975811 -3.4901
28 1 3.59489 -14.2347 44.2299 -3.48017
29 1 5.37856 -12.4374 -0.794227 -3.50435
30 1 5.37274 -14.2191 1.00463 -3.37142
31 1 3.45642 -12.4706 1.09496 -3.52094
32 1 7.25447 -14.3912 -1.01174 -3.33329
33 1 8.84648 -12.5301 -0.756674 -3.40481
34 1 8.89484 -14.3527 1.16054 -3.10134
35 1 7.17991 -12.5706 0.986553 -3.49241
36 1 10.4609 -14.1693 -0.61419 -2.71199
37 1 12.6351 -12.437 44.2776 -2.80347
38 1 10.7626 -12.3978 1.09353 -3.36546
39 1 -14.2642 -10.5149 -0.996895 -2.7204
40 1 -12.5299 -8.94741 44.0422 -3.40076
41 1 -12.5547 -10.6276 0.940879 -3.35772
42 1 -14.5216 -8.91123 1.07942 -3.07108
43 1 -10.7423 -10.72 44.0587 -3.48382
44 1 -8.98967 -9.11229 -0.907166 -3.46388
45 1 -8.98627 -10.703 1.01101 -3.53284
46 1 -10.7732 -8.91347 1.0616 -3.43984
47 1 -7.20399 -10.6907 -1.02913 -3.45191
48 1 -5.3082 -9.21076 44.1775 -3.47312
49 1 -5.33675 -10.8313 1.06812 -3.48092
50 1 -6.97721 -9.1162 1.10248 -3.45723
51 1 -3.52183 -10.825 -0.756491 -3.46725
52 1 -1.77411 -9.11336 -0.830723 -3.47609
53 1 -1.71928 -10.821 0.931914 -3.48428
54 1 -3.48246 -9.05585 1.12804 -3.50002
55 1 0.0142403 -10.7478 -0.88644 -3.49749
56 1 1.75325 -8.9101 -0.884451 -3.42428
57 1 1.78195 -10.6613 1.06143 -3.52201
58 1 -0.0301233 -8.86216 1.01684 -3.51076
59 1 3.54833 -10.7311 -0.92955 -3.48975
60 1 5.34781 -9.02715 -0.861558 -3.50848
61 1 5.32991 -10.9024 1.009 -3.49589
62 1 3.52634 -9.02524 1.09392 -3.48254
63 1 7.20157 -10.6726 -0.676323 -3.5134
64 1 9.10234 -8.84459 -0.845231 -3.49545
65 1 8.91564 -10.6853 1.15189 -3.50095
66 1 7.07823 -8.96541 1.0941 -3.50535
67 1 10.7128 -10.7041 -0.873695 -3.49182
68 1 12.4433 -9.00427 -0.778104 -3.46093
69 1 12.622 -10.6099 1.21526 -3.30641
70 1 10.7842 -8.99331 1.09621 -3.49377
71 1 14.4058 -10.5302 44.1926 -2.71743
72 1 14.4153 -8.97766 1.30095 -3.07666
73 1 -15.8836 -5.10378 -0.712663 -2.96473
74 1 -16.0115 -7.0455 1.01414 -2.73197
75 1 -14.2878 -7.26259 -0.779953 -3.34727
76 1 -12.4641 -5.50547 44.2029 -3.50507
77 1 -12.5521 -7.39826 1.07098 -3.46678
78 1 -14.1751 -5.36693 1.11079 -3.46542
79 1 -10.6652 -7.17278 -0.808096 -3.49266
80 1 -8.92944 -5.3964 -0.803453 -3.52725
81 1 -8.8581 -7.36812 0.935832 -3.5281
82 1 -10.6502 -5.38027 1.11864 -3.49781
83 1 -7.04138 -7.2327 -0.748624 -3.53365
84 1 -5.39668 -5.43267 -0.808065 -3.51046
85 1 -5.14185 -7.34595 1.00998 -3.50242
86 1 -7.08062 -5.4494 1.11602 -3.50358
87 1 -3.53079 -7.33632 44.0941 -3.52107
88 1 -1.85937 -5.55964 -0.65687 -3.48348
89 1 -1.82843 -7.16635 1.15431 -3.51235
90 1 -3.69838 -5.33567 1.0976 -3.44644
91 1 0.0393361 -7.2885 44.1327 -3.48826
92 1 1.78461 -5.32169 -0.885689 -3.49904
93 1 1.85724 -7.31371 0.977416 -3.47541
94 1 0.0714944 -5.62214 1.14344 -3.48951
95 1 3.53341 -7.26854 -0.89872 -3.49691
96 1 5.21132 -5.39508 -0.918818 -3.52138
97 1 5.29337 -7.21217 0.891519 -3.50398
98 1 3.56896 -5.33033 1.07345 -3.4955
99 1 7.1107 -7.22149 44.1309 -3.49034
100 1 8.92165 -5.52556 44.1571 -3.49678
101 1 8.9765 -7.20778 1.03025 -3.50905
102 1 7.03187 -5.28064 1.04906 -3.5155
103 1 10.814 -7.19819 -0.741739 -3.4813
104 1 12.5873 -5.20763 -0.832794 -3.51165
105 1 12.5457 -7.17909 1.03138 -3.5177
106 1 10.7312 -5.43649 1.03417 -3.52525
107 1 14.2844 -7.29413 44.157 -3.38426
108 1 15.979 -5.51908 44.2176 -2.9971
109 1 15.9563 -6.96114 1.17246 -2.71371
110 1 14.2819 -5.34202 1.10726 -3.39676
111 1 -15.9102 -1.92304 -0.810214 -3.11905
112 1 -15.9334 -3.61616 1.05445 -3.00711
113 1 -14.111 -3.63928 -0.908952 -3.4258
114 1 -12.5093 -1.6406 -0.759811 -3.49471
115 1 -12.5146 -3.51398 1.17209 -3.51564
116 1 -14.3308 -1.77015 1.2171 -3.48487
117 1 -10.8441 -3.57852 -0.726216 -3.53429
118 1 -8.98038 -1.94598 44.1749 -3.51555
119 1 -8.87603 -3.73792 1.13158 -3.47147
120 1 -10.7263 -1.71588 1.12715 -3.49864
121 1 -7.04507 -3.70052 -0.665392 -3.49353
122 1 -5.19988 -2.01936 -0.734078 -3.50959
123 1 -5.34003 -3.65715 1.17217 -3.43745
124 1 -7.20207 -1.95596 1.14241 -3.51161
125 1 -3.49281 -3.80817 -0.793692 -3.46179
126 1 -1.85221 -1.79157 44.268 -3.49088
127 1 -1.73655 -3.81285 1.22509 -3.50409
128 1 -3.53956 -2.03631 1.09653 -3.5022
129 1 -0.0240527 -3.67124 -0.839928 -3.4947
130 1 1.83831 -1.75461 44.0166 -3.45825
131 1 1.703 -3.6866 1.02261 -3.52665
132 1 -0.0512396 -1.95658 0.966546 -3.49943
133 1 3.48454 -3.56359 -0.882783 -3.48799
134 1 5.26729 -1.83341 -0.878004 -3.51963
135 1 5.1724 -3.52452 1.1274 -3.4847
136 1 3.44211 -1.80135 0.98897 -3.51911
137 1 7.1201 -3.55643 44.0667 -3.50351
138 1 8.85676 -1.82975 -0.840448 -3.49581
139 1 8.84638 -3.69216 0.893609 -3.45156
140 1 7.09132 -1.87801 1.03199 -3.5325
141 1 10.6037 -3.64575 -0.800696 -3.50914
142 1 12.4415 -1.88242 -0.809957 -3.54948
143 1 12.5408 -3.64309 1.01683 -3.47003
144 1 10.5717 -1.90559 0.991892 -3.5128
145 1 14.3846 -3.51418 -0.893401 -3.45289
146 1 16.1305 -1.8476 -0.839348 -3.0753
147 1 16.278 -3.59797 0.773376 -2.98951
148 1 14.2705 -1.91746 1.07672 -3.48916
149 1 -17.3881 -0.0390675 44.0854 -2.43645
150 1 -16.0916 2.06844 44.1419 -3.12112
151 1 -16.1712 0.198576 1.22452 -3.17868
152 1 -14.4177 0.0669248 -0.734188 -3.52867
153 1 -12.5554 1.71588 44.2146 -3.51172
154 1 -12.4359 -0.00936683 1.04238 -3.48341
155 1 -14.2888 1.8916 1.11557 -3.50866
156 1 -10.6981 -0.0348864 44.0956 -3.47835
157 1 -8.76769 1.72026 44.2556 -3.5167
158 1 -8.89753 -0.117367 0.960569 -3.47518
159 1 -10.7189 1.78276 1.0689 -3.52645
160 1 -7.084 -0.217797 44.2489 -3.53056
161 1 -5.37668 1.77598 -0.730976 -3.4939
162 1 -5.3278 -0.215021 1.24797 -3.51535
163 1 -7.07583 1.62145 1.15444 -3.48151
164 1 -3.63349 -0.0613308 -0.668473 -3.51716
165 1 -1.94502 1.79938 -0.70658 -3.50766
166 1 -1.7826 -0.0038539 1.27175 -3.50727
167 1 -3.49258 1.70314 1.20586 -3.49605
168 1 -0.111212 -0.026455 -0.801165 -3.52732
169 1 1.60927 1.89271 -0.758186 -3.50048
170 1 1.6403 -0.0562567 1.02923 -3.53105
171 1 -0.116217 1.80776 0.992909 -3.51023
172 1 3.4138 0.105053 -0.793763 -3.48091
173 1 5.31436 1.82004 -0.736251 -3.50964
174 1 5.37782 -0.00124265 1.09894 -3.51654
175 1 3.40724 1.88447 1.14648 -3.51701
176 1 6.97845 0.0145173 -0.793336 -3.502
177 1 8.94834 1.74577 -0.866865 -3.5104
178 1 8.90562 -0.127085 0.945348 -3.49921
179 1 7.14873 1.78221 1.0121 -3.52307
180 1 10.5522 -0.0084017 -0.94306 -3.43508
181 1 12.4059 1.63693 -0.702395 -3.50799
182 1 12.4327 -0.00286049 1.04584 -3.48677
183 1 10.5477 1.71598 1.19222 -3.46713
184 1 14.3917 -0.121076 -0.710095 -3.51986
185 1 16.1473 1.94538 -0.777377 -3.09232
186 1 16.0895 -0.298998 1.08061 -3.21416
187 1 14.2789 1.5407 1.0429 -3.46103
188 1 17.5783 0.0191677 44.1146 -2.42559
189 1 -15.8716 5.65081 44.2418 -2.98171
190 1 -16.0207 3.73224 1.15942 -3.0522
191 1 -14.1722 3.76056 44.1936 -3.48384
192 1 -12.4194 5.41267 44.2263 -3.48057
193 1 -12.4659 3.6325 1.30399 -3.50891
194 1 -14.159 5.39963 1.20694 -3.46592
195 1 -10.7112 3.66902 44.3373 -3.51961
196 1 -8.73997 5.31857 44.2891 -3.45975
197 1 -8.88597 3.70809 1.20595 -3.48791
198 1 -10.7171 5.50439 1.14643 -3.51674
199 1 -7.00264 3.57591 -0.756056 -3.42894
200 1 -5.33981 5.40561 44.2075 -3.50694
201 1 -5.42395 3.49664 1.058 -3.50468
202 1 -7.14169 5.41045 1.17625 -3.48393
203 1 -3.58188 3.65016 -0.7653 -3.50006
204 1 -1.91531 5.43024 -0.82352 -3.46236
205 1 -2.00442 3.72056 1.11772 -3.50513
206 1 -3.70173 5.3807 1.0312 -3.44902
207 1 -0.235594 3.59076 -0.677144 -3.49951
208 1 1.71789 5.4779 44.088 -3.46781
209 1 1.71798 3.71839 1.12354 -3.51645
210 1 -7.12646e-05 5.52256 1.13892 -3.51532
211 1 3.41407 3.7171 44.2272 -3.48523
212 1 5.26001 5.33725 44.2084 -3.50088
213 1 5.28508 3.6104 1.03616 -3.51904
214 1 3.56781 5.41502 1.23979 -3.49867
215 1 7.23757 3.68831 -0.817972 -3.51324
216 1 9.01082 5.39812 -0.773868 -3.49581
217 1 8.96726 3.70282 1.10436 -3.5363
218 1 7.17404 5.47559 1.09438 -3.48538
219 1 10.7009 3.55057 -0.916826 -3.48444
220 1 12.409 5.36549 -0.884524 -3.43137
221 1 12.3436 3.58201 0.896078 -3.50077
222 1 10.8178 5.49796 1.07577 -3.46334
223 1 14.2178 3.49614 -0.699618 -3.46906
224 1 16.0266 5.18041 -0.589221 -3.01844
225 1 15.986 3.39642 1.14892 -3.05873
226 1 14.2834 5.2035 1.05784 -3.44485
227 1 -15.9072 7.0993 1.2194 -2.75474
228 1 -14.1544 7.29113 44.3008 -3.33094
229 1 -12.2891 8.84287 44.3489 -3.44371
230 1 -12.5075 7.24364 1.25123 -3.48243
231 1 -14.3262 8.97699 1.12359 -3.11606
232 1 -10.548 6.96797 44.1583 -3.49309
233 1 -8.92569 8.95028 44.0954 -3.48918
234 1 -8.77461 7.2729 1.23614 -3.48164
235 1 -10.5787 8.90003 1.06017 -3.50231
236 1 -7.20204 7.27796 44.2009 -3.5038
237 1 -5.41393 8.9531 44.1532 -3.52945
238 1 -5.38165 7.22032 1.11024 -3.52614
239 1 -7.18134 9.1287 1.11479 -3.51685
240 1 -3.61838 7.15454 44.2462 -3.49068
241 1 -1.77468 9.01844 44.1155 -3.4904
242 1 -1.89609 7.16343 1.04689 -3.53369
243 1 -3.56569 8.99522 1.03993 -3.51557
244 1 -0.0907213 7.35615 44.0894 -3.47492
245 1 1.75599 9.07716 44.2153 -3.50606
246 1 1.75985 7.22304 1.15513 -3.52035
247 1 0.00136454 8.92963 1.17038 -3.49486
248 1 3.52099 7.30753 44.3435 -3.52057
249 1 5.41133 8.93264 44.172 -3.51354
250 1 5.28929 7.24621 1.14998 -3.51847
251 1 3.61635 9.10631 1.18313 -3.48461
252 1 7.0948 7.19064 -0.770285 -3.50667
253 1 8.77685 8.94779 44.2105 -3.50774
254 1 8.97785 7.06004 1.01103 -3.46385
255 1 7.15494 9.02184 1.17504 -3.51674
256 1 10.8146 7.07086 -0.814707 -3.44604
257 1 12.6033 9.03779 -0.861009 -3.43298
258 1 12.5794 7.1762 0.931723 -3.49095
259 1 10.6906 8.93458 1.03788 -3.54374
260 1 14.2825 7.08983 -0.740963 -3.34625
261 1 16.0886 7.01583 1.10786 -2.70921
262 1 14.3168 9.00581 1.07469 -3.09856
263 1 -14.1176 10.7794 44.3547 -2.73666
264 1 -12.3822 12.5851 44.3334 -2.90117
265 1 -12.3115 10.6342 1.0664 -3.36908
266 1 -10.5898 10.8692 44.2074 -3.48635
267 1 -8.89536 12.5667 44.242 -3.41437
268 1 -8.85645 10.9748 1.13757 -3.48469
269 1 -10.736 12.6892 1.22888 -3.3104
270 1 -7.18536 10.8573 -0.779527 -3.52682
271 1 -5.36002 12.5384 44.2453 -3.54446
272 1 -5.28721 10.852 1.18691 -3.52068
273 1 -7.14744 12.691 1.18201 -3.49834
274 1 -3.54905 10.7413 -0.771168 -3.51346
275 1 -1.7744 12.6632 44.3012 -3.52309
276 1 -1.66696 10.7086 1.0537 -3.4888
277 1 -3.59376 12.6634 1.1499 -3.49171
278 1 0.141002 10.9242 44.1248 -3.51688
279 1 1.92159 12.6592 44.0379 -3.47708
280 1 1.84482 10.7923 1.00203 -3.50206
281 1 -0.0277954 12.623 1.04293 -3.45981
282 1 3.66593 10.7921 44.1661 -3.51054
283 1 5.28187 12.5864 44.2777 -3.49922
284 1 5.26826 10.8885 1.16257 -3.51293
285 1 3.453 12.7331 1.11276 -3.5204
286 1 7.22365 10.9396 44.2001 -3.49904
287 1 9.06123 12.5424 -0.58293 -3.32933
288 1 9.02527 10.8706 1.12591 -3.48111
289 1 7.27832 12.6464 1.06149 -3.50279
290 1 10.83 10.8121 44.1654 -3.51228
291 1 12.6196 12.6433 -0.504339 -2.78907
292 1 12.4425 10.7111 1.16995 -3.36425
293 1 10.761 12.7102 1.22861 -3.26023
294 1 14.222 10.7255 -0.664685 -2.66981
295 1 -10.4408 14.4 44.2058 -2.75024
296 1 -8.74836 14.5646 1.2677 -3.10689
297 1 -7.08927 14.43 44.2859 -3.42587
298 1 -5.24124 16.3306 -0.732173 -2.97878
299 1 -5.30947 14.3926 1.20582 -3.46518
300 1 -6.96956 16.1895 1.23439 -2.72838
301 1 -3.581 14.4019 44.2935 -3.47066
302 1 -1.98403 16.2921 44.1538 -3.13263
303 1 -1.7738 14.6142 1.07416 -3.47289
304 1 -3.55287 16.2299 1.17972 -3.04041
305 1 0.0146569 14.5078 -0.825958 -3.52499
306 1 1.97515 16.2398 -0.898562 -3.10676
307 1 1.67672 14.4309 0.995155 -3.47892
308 1 0.162181 16.5306 0.934213 -3.18797
309 1 3.51162 14.4655 44.1529 -3.41914
310 1 5.33542 16.1725 44.1439 -3.01053
311 1 5.28311 14.3842 0.992101 -3.36249
312 1 3.66907 16.1707 1.05732 -3.01668
313 1 7.10782 14.3223 -0.908131 -3.37495
314 1 9.02049 14.3292 1.03805 -3.06035
315 1 7.09608 15.8137 1.09529 -2.76723
316 1 10.5943 14.2878 44.0532 -2.69841
317 1 0.0167662 17.8834 -1.13178 -2.34992
318 1 -5.33671 -16.0741 2.89707 -3.00443
319 1 -7.063 -16.1853 4.69513 -2.7036
320 1 -1.89083 -16.2488 2.64133 -3.13386
321 1 -3.57811 -16.1576 4.67227 -3.01997
322 1 0.110406 -17.6909 2.93881 -2.37218
323 1 1.86816 -16.2145 2.90839 -3.11217
324 1 0.00362259 -15.8875 4.63936 -3.19175
325 1 5.32035 -16.1664 3.077 -2.96256
326 1 3.55202 -16.1775 4.82475 -3.00774
327 1 6.99507 -15.9818 4.95984 -2.73033
328 1 -12.6654 -12.2535 3.08693 -2.84244
329 1 -10.879 -14.2306 2.80917 -2.68734
330 1 -9.07953 -12.4634 2.78227 -3.46573
331 1 -9.00518 -14.394 4.56365 -3.10698
332 1 -10.8686 -12.3108 4.58786 -3.28146
333 1 -7.13185 -14.3815 2.89424 -3.36328
334 1 -5.27947 -12.6484 3.00227 -3.49035
335 1 -5.35891 -14.3841 4.90488 -3.47993
336 1 -7.24458 -12.5871 4.74996 -3.50739
337 1 -3.62148 -14.4035 2.87153 -3.45539
338 1 -1.70963 -12.7031 2.82159 -3.49145
339 1 -1.86325 -14.3502 4.69979 -3.45037
340 1 -3.67781 -12.5356 4.78085 -3.49768
341 1 -0.162489 -14.4367 2.86699 -3.40555
342 1 1.58207 -12.6811 2.90546 -3.5082
343 1 1.74412 -14.2334 4.79941 -3.45322
344 1 -0.0853892 -12.6908 4.81352 -3.50148
345 1 3.61205 -14.4204 2.8313 -3.49309
346 1 5.53327 -12.6378 2.97756 -3.48647
347 1 5.24254 -14.3895 4.80405 -3.4414
348 1 3.52732 -12.5187 4.61583 -3.45117
349 1 7.14666 -14.359 2.98198 -3.3554
350 1 8.90849 -12.4317 2.89839 -3.51867
351 1 8.84777 -14.186 4.81237 -3.13921
352 1 7.10583 -12.4547 4.8725 -3.48226
353 1 10.556 -14.2567 3.07971 -2.72038
354 1 12.3136 -12.6605 3.0233 -2.83081
355 1 10.7775 -12.4619 4.84559 -3.28762
356 1 -14.4185 -10.5226 3.04325 -2.70677
357 1 -12.6271 -8.83953 2.98843 -3.40869
358 1 -12.7265 -10.53 4.90244 -3.32141
359 1 -14.5207 -8.81669 4.96535 -3.11404
360 1 -10.9545 -10.5383 2.83496 -3.43351
361 1 -8.91454 -9.01575 2.89734 -3.5312
362 1 -8.92848 -10.7951 4.73719 -3.48903
363 1 -10.867 -9.06504 4.79159 -3.50671
364 1 -7.09159 -10.6912 2.97431 -3.46855
365 1 -5.36913 -9.05143 2.87595 -3.47745
366 1 -5.42936 -10.8216 4.84183 -3.52787
367 1 -7.22409 -8.9923 4.77756 -3.46723
368 1 -3.60487 -10.8079 2.86497 -3.51005
369 1 -1.69628 -9.0218 2.98872 -3.50189
370 1 -1.82963 -10.8596 4.64938 -3.488
371 1 -3.53112 -9.16022 4.73398 -3.49939
372 1 0.0652584 -10.7836 2.99105 -3.46759
373 1 1.67023 -9.07744 3.17359 -3.47903
374 1 1.81098 -10.9232 4.76978 -3.48167
375 1 -0.146242 -8.96326 4.83238 -3.50078
376 1 3.62148 -10.7735 2.97881 -3.49052
377 1 5.3697 -8.98416 2.99164 -3.48901
378 1 5.21234 -10.699 4.88828 -3.48999
379 1 3.50728 -8.99121 4.90873 -3.51324
380 1 7.14403 -10.7533 2.87634 -3.48432
381 1 8.8557 -9.05752 3.02821 -3.47913
382 1 9.04581 -10.6825 4.8338 -3.47648
383 1 7.16418 -9.07896 4.9819 -3.50514
384 1 10.7568 -10.6043 2.99038 -3.51028
385 1 12.5501 -8.79318 2.83782 -3.39953
386 1 12.3956 -10.7914 4.95815 -3.295
387 1 10.7537 -9.03134 4.89561 -3.46335
388 1 14.1864 -10.8099 3.10186 -2.7169
389 1 14.2486 -8.98798 4.79578 -3.15385
390 1 -15.9076 -5.3865 2.9109 -2.99908
391 1 -16.1952 -6.90879 4.94298 -2.698
392 1 -14.3344 -7.15136 3.05136 -3.35087
393 1 -12.4236 -5.47898 2.87801 -3.51815
394 1 -12.6265 -7.16532 4.86581 -3.51253
395 1 -14.2329 -5.4002 4.97515 -3.44251
396 1 -10.7351 -7.18626 2.93021 -3.5074
397 1 -8.95481 -5.46665 2.88606 -3.4717
398 1 -8.90533 -7.3155 4.84099 -3.45086
399 1 -10.5181 -5.53493 4.79014 -3.47315
400 1 -7.19046 -7.18905 2.8882 -3.52954
401 1 -5.38323 -5.43672 2.84544 -3.42509
402 1 -5.32706 -7.20034 4.80637 -3.50499
403 1 -7.21256 -5.48741 4.80761 -3.54255
404 1 -3.58401 -7.14918 3.12289 -3.50332
405 1 -1.72137 -5.44038 2.99842 -3.47382
406 1 -1.89641 -7.28301 4.78771 -3.4705
407 1 -3.64889 -5.35876 5.00788 -3.44024
408 1 -0.00608429 -7.18052 2.91694 -3.45035
409 1 1.9211 -5.56904 2.82377 -3.47985
410 1 1.75603 -7.11521 4.85698 -3.4228
411 1 -0.0277308 -5.64658 4.74106 -3.42478
412 1 3.60526 -7.29923 2.88662 -3.50105
413 1 5.32292 -5.427 2.97509 -3.52695
414 1 5.42945 -7.20493 4.8739 -3.52171
415 1 3.51755 -5.57738 4.79462 -3.48019
416 1 7.10943 -7.23846 2.95519 -3.51074
417 1 8.90171 -5.33582 2.84685 -3.50075
418 1 8.89559 -7.17717 4.98401 -3.50137
419 1 7.16986 -5.37826 4.99831 -3.48961
420 1 10.6559 -7.18069 2.86629 -3.50995
421 1 12.3766 -5.45458 3.02472 -3.53078
422 1 12.5366 -7.31296 4.86668 -3.46324
423 1 10.6268 -5.47389 4.84765 -3.5107
424 1 14.3585 -7.18611 2.88137 -3.31147
425 1 16.1267 -5.2379 2.91617 -2.98137
426 1 16.0684 -7.10971 4.87705 -2.69407
427 1 14.3308 -5.53456 4.78372 -3.44149
428 1 -16.2593 -1.84546 2.95042 -3.05243
429 1 -16.1234 -3.42528 4.70389 -2.96135
430 1 -14.209 -3.63765 3.05672 -3.46308
431 1 -12.5435 -1.79467 3.01775 -3.51464
432 1 -12.4403 -3.69037 4.79955 -3.50856
433 1 -14.228 -1.77448 4.84214 -3.46556
434 1 -10.6715 -3.57646 2.94964 -3.53108
435 1 -9.0371 -1.74273 3.01025 -3.50626
436 1 -8.82742 -3.64277 4.87882 -3.46025
437 1 -10.7988 -1.83692 4.92598 -3.51784
438 1 -7.19304 -3.69694 2.98102 -3.53928
439 1 -5.37459 -1.91245 3.18932 -3.47346
440 1 -5.41772 -3.57011 4.9195 -3.48825
441 1 -7.26632 -1.82619 4.87276 -3.4621
442 1 -3.73343 -3.8044 3.10141 -3.47136
443 1 -1.75288 -1.89425 3.00164 -3.54155
444 1 -1.75128 -3.72022 4.88443 -3.52168
445 1 -3.59604 -1.94959 4.85749 -3.50728
446 1 0.0548232 -3.68531 2.91291 -3.49155
447 1 1.64892 -1.84004 2.86957 -3.498
448 1 1.71326 -3.7487 4.70033 -3.50652
449 1 0.020978 -1.79435 4.67062 -3.48853
450 1 3.48431 -3.65377 3.00153 -3.50589
451 1 5.23741 -1.77768 2.99361 -3.51366
452 1 5.30645 -3.58866 4.81177 -3.51532
453 1 3.37974 -1.84499 4.71756 -3.53094
454 1 7.11958 -3.68964 3.0421 -3.49495
455 1 8.82057 -1.87809 2.9086 -3.52933
456 1 8.91842 -3.64645 4.93232 -3.51687
457 1 7.03658 -1.86671 4.78755 -3.50934
458 1 10.657 -3.61218 2.93521 -3.51622
459 1 12.443 -1.93038 2.81172 -3.48791
460 1 12.529 -3.58843 4.65641 -3.49736
461 1 10.6827 -1.80652 4.95216 -3.49238
462 1 14.2564 -3.74178 2.84238 -3.41325
463 1 16.1288 -1.93143 3.0558 -3.14126
464 1 16.1361 -3.66218 4.92319 -3.016
465 1 14.2825 -1.74989 4.80994 -3.47696
466 1 -17.7778 0.342841 3.09071 -2.4691
467 1 -16.1317 1.98795 2.9247 -3.18534
468 1 -15.9649 -0.0483697 4.91804 -3.24671
469 1 -14.431 0.152125 2.99199 -3.4814
470 1 -12.5065 1.68724 3.05616 -3.51346
471 1 -12.4969 -0.0580237 4.85535 -3.47061
472 1 -14.3682 1.88614 4.75419 -3.51744
473 1 -10.6815 -0.00353203 3.02056 -3.43937
474 1 -9.00579 1.59761 2.94672 -3.47267
475 1 -8.89823 0.0557799 5.07542 -3.52676
476 1 -10.8202 1.77396 4.89861 -3.50586
477 1 -7.05559 -0.0209705 3.03668 -3.47766
478 1 -5.47726 1.76027 3.0219 -3.47152
479 1 -5.50426 -0.187594 5.00817 -3.49106
480 1 -7.08312 1.83679 5.01185 -3.50315
481 1 -3.6242 -0.063425 3.0381 -3.5103
482 1 -1.8151 1.86351 3.03246 -3.49848
483 1 -1.81344 -0.0278877 4.82714 -3.52815
484 1 -3.63121 1.72348 4.77928 -3.52314
485 1 0.0177366 0.0438292 3.0619 -3.45979
486 1 1.70609 1.81716 2.88873 -3.51008
487 1 1.68809 0.12762 4.73605 -3.45387
488 1 -0.0247311 1.84675 4.82623 -3.52458
489 1 3.46523 0.0120621 2.86102 -3.53745
490 1 5.23637 1.92181 2.91073 -3.50969
491 1 5.2608 0.00461963 4.804 -3.51997
492 1 3.38121 1.87173 4.7234 -3.5077
493 1 7.09864 -0.0433831 2.92512 -3.52604
494 1 8.94674 1.61783 2.86323 -3.4485
495 1 8.94306 -0.0922236 4.69915 -3.52133
496 1 7.18632 1.77874 4.78619 -3.4886
497 1 10.7054 -0.152169 2.83245 -3.49495
498 1 12.4193 1.62455 2.97114 -3.45116
499 1 12.3384 0.0216018 4.84923 -3.49502
500 1 10.642 1.85549 4.64019 -3.4989
501 1 14.253 -0.108429 2.82468 -3.49417
502 1 16.0521 1.59468 2.95281 -3.1033
503 1 15.9999 -0.0679723 4.63617 -3.19619
504 1 14.1837 1.62423 4.60616 -3.46635
505 1 17.6978 -0.0722094 2.83706 -2.34999
506 1 -16.0869 5.35378 3.02732 -3.01697
507 1 -16.0366 3.68267 4.86402 -3.09338
508 1 -14.2002 3.7286 3.09048 -3.48658
509 1 -12.3716 5.54622 3.05744 -3.5111
510 1 -12.4543 3.67758 4.81226 -3.50558
511 1 -14.2869 5.5145 4.82078 -3.47237
512 1 -10.6897 3.51939 3.04234 -3.5305
513 1 -8.77955 5.46716 3.05776 -3.51315
514 1 -8.95171 3.56978 5.01879 -3.49147
515 1 -10.6047 5.40837 4.94453 -3.50699
516 1 -7.24797 3.50081 3.14404 -3.50621
517 1 -5.40066 5.40432 3.09067 -3.46692
518 1 -5.3476 3.63849 4.97887 -3.49957
519 1 -7.0156 5.39172 4.86269 -3.47966
520 1 -3.73804 3.7188 2.99729 -3.50786
521 1 -1.68642 5.47236 2.98517 -3.48859
522 1 -1.83278 3.67724 4.71203 -3.50484
523 1 -3.56321 5.49296 4.86013 -3.50671
524 1 -0.105263 3.60287 2.94906 -3.49548
525 1 1.68045 5.31149 3.04512 -3.48422
526 1 1.68596 3.64865 4.84505 -3.47782
527 1 0.0507349 5.33894 4.89378 -3.49886
528 1 3.55674 3.6896 2.96987 -3.50337
529 1 5.55356 5.31433 3.01378 -3.49999
530 1 5.40227 3.47987 4.83447 -3.52599
531 1 3.60758 5.36614 4.81532 -3.49958
532 1 7.14536 3.50749 2.82796 -3.48685
533 1 8.88301 5.41793 2.8833 -3.51683
534 1 8.81795 3.52904 4.67737 -3.49586
535 1 7.09712 5.41144 4.87584 -3.49608
536 1 10.8669 3.61343 2.90903 -3.51076
537 1 12.5624 5.4321 2.8026 -3.47085
538 1 12.4007 3.60582 4.7978 -3.48438
539 1 10.5698 5.31331 4.8411 -3.51111
540 1 14.104 3.38574 2.8258 -3.5217
541 1 16.1412 5.38441 2.7461 -2.92707
542 1 16.0713 3.57263 4.48013 -3.04739
543 1 14.2367 5.25022 4.70348 -3.40699
544 1 -16.1778 7.31363 4.85314 -2.65463
545 1 -14.2852 7.21214 2.98164 -3.36886
546 1 -12.292 9.00739 3.04525 -3.48823
547 1 -12.466 7.22433 4.85135 -3.51339
548 1 -14.4273 9.02195 4.70365 -3.08935
549 1 -10.4977 7.27535 3.17324 -3.49517
550 1 -8.8145 8.99061 3.04867 -3.47676
551 1 -8.72838 7.28641 4.88102 -3.51613
552 1 -10.6906 9.06575 4.91761 -3.47068
553 1 -7.04553 7.27614 2.97617 -3.50704
554 1 -5.16474 9.09036 2.99273 -3.52309
555 1 -5.29598 7.26029 5.00155 -3.51652
556 1 -7.00313 9.09259 4.97035 -3.47089
557 1 -3.58044 7.16067 2.97856 -3.53613
558 1 -1.72041 8.98179 2.8862 -3.50181
559 1 -1.77432 7.26429 4.70613 -3.48866
560 1 -3.4594 9.15107 4.80515 -3.50905
561 1 0.00766804 7.19296 2.98762 -3.48264
562 1 1.89382 8.99842 2.983 -3.47297
563 1 1.87116 7.21175 4.7121 -3.49312
564 1 0.0238571 8.94817 4.75704 -3.4865
565 1 3.50726 7.07212 3.013 -3.49328
566 1 5.38482 9.06441 2.96707 -3.51809
567 1 5.42955 7.34334 4.78381 -3.51609
568 1 3.5964 9.06637 4.66946 -3.47329
569 1 7.09414 7.16692 2.89569 -3.47384
570 1 8.89495 8.86583 2.8367 -3.51099
571 1 8.82796 7.20989 4.9196 -3.50331
572 1 7.22499 9.05774 4.77193 -3.49669
573 1 10.6842 7.14081 2.99282 -3.51771
574 1 12.4304 8.9737 2.9955 -3.47481
575 1 12.5135 7.05179 4.70222 -3.49704
576 1 10.7895 9.03041 4.84961 -3.50871
577 1 14.2603 7.1752 2.97228 -3.3689
578 1 16.0115 6.80873 4.66545 -2.74063
579 1 14.2874 8.82304 4.82341 -3.13414
580 1 -14.2272 10.7304 2.89792 -2.71917
581 1 -12.4737 12.3818 2.91917 -2.88827
582 1 -12.4987 10.7942 4.83226 -3.35496
583 1 -10.6022 10.7187 2.98256 -3.51088
584 1 -8.82676 12.6549 3.05786 -3.47887
585 1 -8.94011 10.7699 4.90994 -3.52177
586 1 -10.6671 12.6374 4.79157 -3.34424
587 1 -7.14142 10.8054 3.00757 -3.53083
588 1 -5.36002 12.6645 2.94884 -3.51877
589 1 -5.21982 10.8128 4.83698 -3.45682
590 1 -7.11055 12.6789 4.85979 -3.53393
591 1 -3.29623 10.9049 2.84119 -3.46942
592 1 -1.66213 12.6698 2.7766 -3.49168
593 1 -1.65466 10.9593 4.92066 -3.49015
594 1 -3.59174 12.6232 4.81365 -3.52573
595 1 0.148338 10.808 2.81622 -3.5151
596 1 1.68673 12.8017 2.99147 -3.48918
597 1 1.6872 10.6956 4.76139 -3.49121
598 1 0.113658 12.7007 4.83223 -3.4809
599 1 3.50579 10.8692 2.93768 -3.5121
600 1 5.36849 12.7514 2.94482 -3.53605
601 1 5.30282 10.9544 4.65237 -3.51754
602 1 3.44979 12.6512 4.76913 -3.52848
603 1 7.27047 10.9521 3.00516 -3.49845
604 1 9.05859 12.517 2.99056 -3.39795
605 1 9.03168 10.7158 4.84623 -3.49715
606 1 7.20853 12.573 4.80741 -3.4986
607 1 10.6865 10.8565 2.88768 -3.44004
608 1 12.4081 12.6381 2.96918 -2.86723
609 1 12.5674 10.8199 4.76304 -3.32227
610 1 10.7859 12.4981 4.85516 -3.36224
611 1 14.2743 10.5484 2.94581 -2.72521
612 1 -10.7105 14.3188 2.95584 -2.69015
613 1 -8.92369 14.3715 4.94433 -3.11846
614 1 -7.06584 14.4439 3.0879 -3.34933
615 1 -5.3172 16.1957 3.04467 -3.00666
616 1 -5.2913 14.5552 4.88803 -3.37922
617 1 -7.03675 16.0887 4.97666 -2.7233
618 1 -3.49275 14.4994 3.11989 -3.49546
619 1 -1.74533 16.328 2.92332 -3.08072
620 1 -1.69396 14.4791 4.79454 -3.46168
621 1 -3.53114 16.2707 4.88614 -3.05163
622 1 -0.0524416 14.7016 2.89906 -3.43531
623 1 1.7212 16.2712 3.09308 -3.11069
624 1 1.7895 14.4462 4.91791 -3.4445
625 1 -0.244371 16.3193 4.82913 -3.1622
626 1 3.48895 14.4581 2.99759 -3.44398
627 1 5.31656 16.0818 2.82913 -2.98593
628 1 5.41964 14.3688 4.87154 -3.42557
629 1 3.668 16.0737 4.77678 -3.01589
630 1 7.13215 14.4237 3.1816 -3.30529
631 1 9.01706 14.3134 4.99373 -3.14661
632 1 7.07933 16.1275 4.95744 -2.69475
633 1 10.6826 14.3368 3.01158 -2.71623
634 1 -0.0332484 17.9892 2.98279 -2.31754
635 1 -5.41682 -16.1753 6.67647 -2.99673
636 1 -7.24537 -16.0351 8.49994 -2.72185
637 1 -1.91018 -16.207 6.40645 -3.07894
638 1 -3.65617 -16.0746 8.45251 -3.0357
639 1 0.110994 -17.4757 6.43063 -2.45544
640 1 1.99667 -16.0492 6.57735 -3.05621
641 1 -0.153754 -16.2004 8.58142 -3.19012
642 1 5.26237 -15.9466 6.81631 -3.03343
643 1 3.52107 -16.2129 8.51304 -3.01639
644 1 6.9557 -15.7986 8.51083 -2.75867
645 1 -12.7467 -12.3862 6.63448 -2.84518
646 1 -10.8929 -14.0079 6.23725 -2.73802
647 1 -8.87854 -12.5061 6.60563 -3.44865
648 1 -9.15617 -14.3073 8.41055 -3.05849
649 1 -10.9573 -12.7635 8.45565 -3.25186
650 1 -7.3365 -14.4559 6.51507 -3.34519
651 1 -5.47484 -12.5956 6.75815 -3.52066
652 1 -5.38044 -14.3542 8.4622 -3.46111
653 1 -7.22078 -12.6657 8.57099 -3.50367
654 1 -3.53946 -14.3887 6.60618 -3.44619
655 1 -1.89447 -12.6166 6.62294 -3.49696
656 1 -1.82234 -14.3061 8.39075 -3.48035
657 1 -3.64021 -12.5368 8.55115 -3.51448
658 1 0.0973964 -14.4999 6.74944 -3.52193
659 1 1.66162 -12.5452 6.66514 -3.49079
660 1 1.65743 -14.4561 8.60747 -3.47766
661 1 0.0408794 -12.6075 8.54929 -3.49802
662 1 3.45555 -14.1833 6.62632 -3.45942
663 1 5.29572 -12.4587 6.6548 -3.48647
664 1 5.28459 -14.1761 8.44756 -3.37548
665 1 3.57355 -12.5402 8.43392 -3.4514
666 1 7.04892 -14.2104 6.56915 -3.34238
667 1 8.87175 -12.5037 6.61932 -3.45657
668 1 8.91035 -14.2896 8.56121 -3.13072
669 1 7.17006 -12.5344 8.56292 -3.5343
670 1 10.7271 -14.1535 6.63852 -2.73739
671 1 12.6448 -12.5381 6.70678 -2.84842
672 1 10.8909 -12.5144 8.55753 -3.25052
673 1 -14.4707 -10.4503 6.81044 -2.7378
674 1 -12.741 -8.89257 6.80585 -3.41574
675 1 -12.7711 -10.9519 8.58088 -3.2478
676 1 -14.4079 -8.88766 8.68865 -3.13033
677 1 -10.7564 -10.8276 6.57353 -3.50224
678 1 -9.12006 -9.0055 6.59171 -3.47797
679 1 -9.01648 -10.7495 8.60244 -3.53143
680 1 -10.8712 -9.02689 8.49834 -3.50292
681 1 -7.29317 -10.6205 6.58382 -3.48558
682 1 -5.49202 -8.87056 6.65983 -3.49953
683 1 -5.51637 -10.8184 8.43208 -3.49554
684 1 -7.18549 -8.94625 8.58814 -3.46606
685 1 -3.63036 -10.876 6.68996 -3.47016
686 1 -1.90041 -9.28193 6.61916 -3.42635
687 1 -1.69398 -10.8434 8.49443 -3.48781
688 1 -3.50338 -9.10359 8.55595 -3.51385
689 1 -0.13112 -10.892 6.53483 -3.48011
690 1 1.74604 -8.95941 6.67729 -3.48541
691 1 1.77264 -10.8198 8.5998 -3.49541
692 1 -0.126317 -8.99425 8.36969 -3.48838
693 1 3.47192 -10.6675 6.86044 -3.49392
694 1 5.32587 -8.84955 6.84835 -3.52235
695 1 5.30985 -10.7389 8.6279 -3.52751
696 1 3.48131 -8.8355 8.67278 -3.49979
697 1 7.05643 -10.8525 6.6745 -3.46665
698 1 8.81958 -9.03919 6.80032 -3.50869
699 1 9.05137 -10.9184 8.59516 -3.51781
700 1 7.14588 -8.98322 8.64523 -3.48139
701 1 10.6949 -10.6806 6.68151 -3.49735
702 1 12.6062 -8.92852 6.7587 -3.45014
703 1 12.408 -10.7987 8.58466 -3.32949
704 1 10.7571 -8.81326 8.52532 -3.49889
705 1 14.2622 -10.6559 6.73127 -2.7253
706 1 14.2622 -8.87283 8.58263 -3.13185
707 1 -16.0218 -5.24779 6.71765 -2.99307
708 1 -15.9369 -6.79713 8.8136 -2.76025
709 1 -14.4897 -7.22355 6.77109 -3.34633
710 1 -12.5647 -5.48661 6.87233 -3.47876
711 1 -12.4681 -7.2485 8.65044 -3.46687
712 1 -14.1219 -5.4601 8.75778 -3.35054
713 1 -10.8275 -7.1705 6.70165 -3.50138
714 1 -8.9505 -5.35177 6.77904 -3.51672
715 1 -8.91658 -7.27922 8.62444 -3.49981
716 1 -10.6096 -5.45108 8.6512 -3.52975
717 1 -7.2485 -7.26129 6.71706 -3.4995
718 1 -5.4696 -5.47771 6.64362 -3.51538
719 1 -5.40861 -7.2223 8.61886 -3.53742
720 1 -7.19577 -5.39535 8.62532 -3.54006
721 1 -3.62131 -7.08083 6.62221 -3.47613
722 1 -1.76673 -5.26705 6.7967 -3.47018
723 1 -1.89491 -7.2891 8.48724 -3.48946
724 1 -3.55257 -5.46932 8.53497 -3.50101
725 1 -0.174009 -7.23227 6.62307 -3.51512
726 1 1.56645 -5.27708 6.68632 -3.49343
727 1 1.73033 -7.14652 8.46851 -3.49336
728 1 -0.127519 -5.39866 8.53977 -3.50579
729 1 3.33673 -7.19055 6.70303 -3.45311
730 1 5.1714 -5.29809 6.71812 -3.51703
731 1 5.20719 -6.92014 8.58742 -3.46326
732 1 3.4936 -5.14734 8.62753 -3.48797
733 1 7.08884 -7.27068 6.76851 -3.4683
734 1 8.8898 -5.43799 6.87437 -3.52546
735 1 8.84356 -7.24144 8.59281 -3.48538
736 1 6.94562 -5.35802 8.69964 -3.45323
737 1 10.6463 -7.27473 6.6839 -3.48315
738 1 12.4292 -5.64847 6.6663 -3.44557
739 1 12.5573 -7.16939 8.56627 -3.45029
740 1 10.8105 -5.44922 8.66106 -3.50786
741 1 14.2479 -7.13209 6.63939 -3.32916
742 1 16.2544 -5.23294 6.73284 -2.95547
743 1 16.0779 -7.0563 8.41319 -2.71181
744 1 14.1956 -5.29169 8.44127 -3.45259