ITEM: TIMESTEP
14000
ITEM: NUMBER OF ATOMS
3804
ITEM: BOX BOUNDS ss ss pp
-1.8052435446578460e+01 1.8049059930166219e+01
-1.8026613724471900e+01 1.8088470688687529e+01
-3.0366000000000004e-01 4.3683660000000003e+01
ITEM: ATOMS id type x y z c_peratom
1 1 -5.39269 -16.1545 -0.221991 -3.01918
2 1 -7.2202 -16.1032 1.56178 -2.74757
3 1 -1.74686 -16.5101 -0.275791 -3.09508
4 1 -3.79819 -16.2132 1.70154 -3.00498
5 1 0.199296 -17.8426 -0.174865 -2.38707
6 1 1.85774 -16.2936 -0.130402 -3.06716
7 1 0.126963 -16.2146 1.48285 -3.13923
8 1 5.474 -16.0974 -0.128759 -2.99166
9 1 3.55862 -16.1928 1.58715 -3.06082
10 1 7.14434 -16.0381 1.61255 -2.73897
11 1 -12.6334 -12.5376 -0.305488 -2.8894
12 1 -10.755 -14.3358 43.5621 -2.74629
13 1 -8.94384 -12.4848 43.6497 -3.44782
14 1 -9.02618 -14.4172 1.41782 -3.14178
15 1 -10.7462 -12.5954 1.29468 -3.33297
16 1 -7.2094 -14.3565 -0.217695 -3.35495
17 1 -5.25433 -12.7098 -0.332588 -3.54794
18 1 -5.4071 -14.3899 1.51889 -3.44266
19 1 -7.1731 -12.6078 1.51845 -3.52826
20 1 -3.47196 -14.5608 43.6591 -3.46359
21 1 -1.73948 -12.586 43.6941 -3.49981
22 1 -1.79322 -14.4409 1.43548 -3.47813
23 1 -3.48105 -12.58 1.57827 -3.5308
24 1 -0.0259336 -14.4784 -0.248495 -3.50902
25 1 1.83598 -12.6275 -0.115905 -3.51785
26 1 1.84647 -14.4081 1.70336 -3.47722
27 1 -0.0392776 -12.6154 1.48772 -3.51743
28 1 3.68215 -14.3797 -0.217601 -3.46327
29 1 5.25405 -12.4554 -0.174027 -3.48861
30 1 5.34892 -14.288 1.56898 -3.45794
31 1 3.66871 -12.5851 1.67125 -3.45103
32 1 7.15389 -14.3879 -0.302177 -3.39099
33 1 9.01582 -12.4719 43.632 -3.43706
34 1 9.11992 -14.3921 1.32341 -3.11433
35 1 7.41482 -12.6286 1.68477 -3.48123
36 1 10.7944 -14.3342 43.503 -2.69659
37 1 12.7263 -12.5472 43.3138 -2.84399
38 1 10.816 -12.4411 1.53552 -3.3175
39 1 -14.3805 -10.6485 43.7487 -2.76034
40 1 -12.6555 -8.98925 43.6667 -3.42464
41 1 -12.7197 -10.7917 1.50981 -3.30638
42 1 -14.4747 -9.12922 1.71758 -3.11285
43 1 -10.8673 -10.8181 43.6178 -3.48592
44 1 -9.04593 -9.15801 43.6191 -3.52785
45 1 -8.98749 -10.7912 1.47603 -3.52845
46 1 -10.8879 -9.09076 1.57218 -3.48037
47 1 -7.0836 -10.7514 43.553 -3.47822
48 1 -5.41472 -9.13744 43.6625 -3.44941
49 1 -5.37319 -10.7371 1.58355 -3.5254
50 1 -7.1696 -8.97395 1.51351 -3.45078
51 1 -3.3976 -10.7846 -0.326099 -3.48541
52 1 -1.74511 -9.06731 -0.44312 -3.48517
53 1 -1.71984 -10.6906 1.63923 -3.48648
54 1 -3.56999 -9.08215 1.50381 -3.50267
55 1 0.0155783 -10.8043 43.6781 -3.5308
56 1 1.67554 -8.88527 -0.396023 -3.48755
57 1 1.73538 -10.7682 1.61821 -3.46661
58 1 -0.00517095 -9.09337 1.52752 -3.48388
59 1 3.45984 -10.6656 -0.110089 -3.50255
60 1 5.34182 -9.01851 43.7135 -3.51214
61 1 5.31278 -10.8111 1.79796 -3.44754
62 1 3.39266 -9.03496 1.6897 -3.4684
63 1 7.10126 -10.9024 -0.0837927 -3.49291
64 1 9.10592 -8.96052 -0.235894 -3.51036
65 1 9.14727 -10.6423 1.55477 -3.47646
66 1 7.25713 -9.10595 1.67797 -3.48938
67 1 10.8568 -10.8041 43.6645 -3.50717
68 1 12.6337 -9.01462 -0.233884 -3.47798
69 1 12.8524 -10.8711 1.41944 -3.30128
70 1 10.9239 -8.98577 1.72332 -3.49355
71 1 14.3817 -10.8799 43.4046 -2.69122
72 1 14.6745 -9.16345 1.5346 -3.07688
73 1 -16.1833 -5.5566 43.574 -2.98367
74 1 -16.0275 -7.08544 1.38485 -2.72005
75 1 -14.5447 -7.54992 43.6027 -3.3097
76 1 -12.8001 -5.53217 43.6102 -3.52594
77 1 -12.5349 -7.35885 1.4357 -3.48074
78 1 -14.2706 -5.49207 1.52926 -3.40819
79 1 -10.8012 -7.25005 43.6494 -3.52785
80 1 -8.97714 -5.53812 43.5397 -3.48323
81 1 -9.08564 -7.45842 1.5383 -3.50004
82 1 -10.8575 -5.35929 1.51823 -3.49567
83 1 -7.25922 -7.36734 -0.212182 -3.4939
84 1 -5.42051 -5.51013 43.5628 -3.49039
85 1 -5.38416 -7.40474 1.45787 -3.49454
86 1 -7.18163 -5.5789 1.61261 -3.47343
87 1 -3.60733 -7.29439 43.6556 -3.52951
88 1 -1.75198 -5.55053 43.6052 -3.4854
89 1 -1.75868 -7.34848 1.56361 -3.5206
90 1 -3.58632 -5.47859 1.44138 -3.52199
91 1 -0.0236395 -7.12931 43.6535 -3.47585
92 1 1.82427 -5.38507 -0.287837 -3.52672
93 1 1.8691 -7.15783 1.53265 -3.5137
94 1 -0.056423 -5.43691 1.5166 -3.51518
95 1 3.56741 -7.19065 43.675 -3.52492
96 1 5.46924 -5.45454 43.5941 -3.466
97 1 5.38379 -7.36705 1.53873 -3.52356
98 1 3.76815 -5.41492 1.50761 -3.5117
99 1 7.23995 -7.29014 -0.316096 -3.50769
100 1 9.17751 -5.5268 -0.210381 -3.47313
101 1 9.13533 -7.23239 1.53357 -3.51012
102 1 7.15663 -5.47668 1.47384 -3.55881
103 1 10.9559 -7.2054 -0.245021 -3.5109
104 1 12.7313 -5.41316 43.7564 -3.52962
105 1 12.916 -7.222 1.5454 -3.49557
106 1 10.854 -5.38165 1.60685 -3.48581
107 1 14.4504 -7.19646 43.7576 -3.32679
108 1 16.2337 -5.40287 43.6504 -2.97579
109 1 16.0471 -7.0797 1.57409 -2.74424
110 1 14.4352 -5.29752 1.61617 -3.40687
111 1 -16.2915 -2.07913 43.3652 -3.07956
112 1 -16.2783 -3.79393 1.40497 -3.03497
113 1 -14.4346 -3.71597 43.579 -3.49821
114 1 -12.6748 -1.83646 -0.457423 -3.51772
115 1 -12.5963 -3.6422 1.38814 -3.46541
116 1 -14.409 -1.88198 1.4309 -3.48748
117 1 -10.9287 -3.64697 43.6871 -3.48426
118 1 -8.94636 -1.91882 -0.319855 -3.51067
119 1 -9.01218 -3.81841 1.49403 -3.48846
120 1 -10.7278 -1.90855 1.3775 -3.4751
121 1 -7.1703 -3.83103 -0.171065 -3.45351
122 1 -5.4068 -2.07225 -0.339421 -3.48063
123 1 -5.40132 -3.8739 1.42942 -3.44245
124 1 -7.21427 -1.91025 1.53252 -3.54782
125 1 -3.59095 -3.66911 43.6709 -3.47104
126 1 -1.83223 -1.78685 43.6535 -3.5315
127 1 -1.81504 -3.7235 1.33108 -3.45
128 1 -3.5885 -2.05548 1.5641 -3.49328
129 1 0.0810332 -3.59623 43.6715 -3.50958
130 1 1.91568 -1.80292 43.5974 -3.49546
131 1 1.81048 -3.61458 1.50417 -3.52531
132 1 0.0014773 -1.81291 1.49373 -3.5149
133 1 3.74815 -3.72577 -0.328846 -3.49532
134 1 5.59446 -1.84677 -0.290737 -3.49054
135 1 5.43723 -3.61798 1.57533 -3.48338
136 1 3.63223 -1.84692 1.3706 -3.50813
137 1 7.2704 -3.62531 -0.420544 -3.49689
138 1 9.05703 -1.85648 43.6732 -3.53435
139 1 8.97854 -3.61914 1.48933 -3.49624
140 1 7.27199 -1.95465 1.56905 -3.47932
141 1 10.8121 -3.75008 43.8431 -3.47098
142 1 12.5142 -1.73122 -0.246833 -3.4911
143 1 12.6018 -3.53139 1.51711 -3.50359
144 1 10.8134 -1.86703 1.61505 -3.47692
145 1 14.5683 -3.56227 43.7873 -3.45297
146 1 16.3091 -1.83225 43.6745 -3.10974
147 1 16.2577 -3.3991 1.59874 -2.99434
148 1 14.48 -1.66209 1.43715 -3.4548
149 1 -17.6833 -0.177813 43.6214 -2.39798
150 1 -16.2323 1.72461 43.611 -3.10343
151 1 -16.196 0.0616806 1.40999 -3.17912
152 1 -14.4704 -0.175502 43.5656 -3.53741
153 1 -12.5159 1.60967 43.5113 -3.46705
154 1 -12.5378 -0.164785 1.42588 -3.4756
155 1 -14.3204 1.65509 1.35649 -3.49337
156 1 -10.8032 -0.16078 43.662 -3.50264
157 1 -9.03298 1.78124 43.6183 -3.46579
158 1 -9.08572 -0.073497 1.59502 -3.47517
159 1 -10.7619 1.79638 1.40001 -3.468
160 1 -7.18105 0.0395953 -0.347969 -3.49831
161 1 -5.46555 1.84776 -0.206429 -3.4994
162 1 -5.49025 -0.0598195 1.53939 -3.48449
163 1 -7.16511 1.62404 1.65061 -3.47311
164 1 -3.67151 -0.113543 -0.243069 -3.51249
165 1 -1.89466 1.72324 43.7579 -3.47742
166 1 -1.85767 0.0956232 1.56107 -3.48893
167 1 -3.78451 1.76353 1.60839 -3.51845
168 1 0.113024 0.0564384 -0.337062 -3.51472
169 1 1.91637 1.81788 43.4556 -3.48517
170 1 1.91162 -0.0758048 1.5027 -3.52648
171 1 -0.00637256 1.73895 1.50231 -3.45685
172 1 3.61715 0.0405119 -0.429776 -3.44766
173 1 5.3717 1.83561 43.6422 -3.50471
174 1 5.28774 0.03305 1.36066 -3.48672
175 1 3.69581 1.95156 1.50805 -3.46324
176 1 7.21489 -0.0626688 -0.381382 -3.52154
177 1 9.01844 1.85306 43.5306 -3.50326
178 1 8.91793 -0.0312489 1.52781 -3.5387
179 1 7.08194 1.82596 1.47143 -3.5311
180 1 10.7009 0.0624686 43.5746 -3.47764
181 1 12.6918 2.01402 43.6377 -3.51101
182 1 12.4917 0.0269683 1.39918 -3.47827
183 1 10.8624 1.80014 1.31963 -3.48808
184 1 14.4169 0.113578 43.7736 -3.50159
185 1 16.255 1.92983 -0.236691 -3.13262
186 1 16.1783 0.156286 1.5026 -3.23372
187 1 14.4215 2.0077 1.69265 -3.44052
188 1 17.8673 0.0896231 43.5115 -2.354
189 1 -16.2662 5.24706 43.5245 -2.98379
190 1 -16.0954 3.3766 1.38141 -3.05528
191 1 -14.3819 3.46604 43.5495 -3.47381
192 1 -12.539 5.41276 43.6116 -3.4974
193 1 -12.3563 3.50627 1.37073 -3.50558
194 1 -14.3801 5.33943 1.35672 -3.42113
195 1 -10.6467 3.48964 43.49 -3.47076
196 1 -9.01036 5.42575 43.5954 -3.5146
197 1 -8.97461 3.55495 1.4967 -3.50339
198 1 -10.742 5.51236 1.46581 -3.52341
199 1 -7.24337 3.47624 -0.327114 -3.50328
200 1 -5.21721 5.45556 43.7933 -3.4677
201 1 -5.38092 3.6928 1.70112 -3.44371
202 1 -7.21042 5.48099 1.37936 -3.54407
203 1 -3.49761 3.53366 43.6974 -3.45696
204 1 -1.84765 5.2785 43.6725 -3.49114
205 1 -1.90589 3.40432 1.48658 -3.48981
206 1 -3.58666 5.32659 1.44344 -3.45721
207 1 -0.0718351 3.62818 43.603 -3.52744
208 1 1.75262 5.36812 43.507 -3.45399
209 1 1.78173 3.66322 1.52067 -3.52842
210 1 -0.100199 5.29704 1.51285 -3.5363
211 1 3.49184 3.73791 43.5569 -3.51013
212 1 5.3049 5.48937 43.5386 -3.52339
213 1 5.35766 3.74348 1.52967 -3.47605
214 1 3.52734 5.52362 1.40008 -3.51732
215 1 7.11545 3.65963 43.6091 -3.49885
216 1 8.91524 5.23427 -0.282844 -3.49227
217 1 8.94274 3.51042 1.46032 -3.51682
218 1 7.01664 5.41529 1.57091 -3.49745
219 1 10.8794 3.68863 43.6285 -3.49378
220 1 12.6475 5.33721 -0.335354 -3.49662
221 1 12.6667 3.67397 1.50438 -3.46317
222 1 10.7588 5.22892 1.64597 -3.49959
223 1 14.5506 3.65342 43.6435 -3.47347
224 1 16.3251 5.37079 -0.155936 -2.98814
225 1 16.1144 3.59136 1.72608 -3.04684
226 1 14.3538 5.36134 1.49486 -3.45513
227 1 -16.0864 7.01456 1.40913 -2.72243
228 1 -14.3142 7.27964 43.5471 -3.3013
229 1 -12.6607 9.00178 43.4816 -3.41118
230 1 -12.7207 7.09167 1.41848 -3.47814
231 1 -14.3783 8.98336 1.17537 -3.07894
232 1 -10.9681 7.28613 43.5011 -3.47346
233 1 -8.97791 9.1348 43.5828 -3.46602
234 1 -8.93911 7.27149 1.35717 -3.51788
235 1 -10.7607 8.96238 1.33751 -3.53204
236 1 -7.04877 7.34388 43.6762 -3.5023
237 1 -5.25704 9.15218 43.5603 -3.50609
238 1 -5.363 7.24849 1.48607 -3.49921
239 1 -7.07569 8.98695 1.49201 -3.50922
240 1 -3.50167 7.24583 -0.31037 -3.52566
241 1 -1.6724 8.97771 -0.177097 -3.51475
242 1 -1.81822 7.15431 1.59719 -3.50033
243 1 -3.54683 9.19741 1.58801 -3.49018
244 1 0.0379395 7.15961 43.7359 -3.51043
245 1 1.86486 9.07245 43.6471 -3.47233
246 1 1.69717 7.13188 1.43764 -3.47032
247 1 0.0951292 9.00123 1.59628 -3.51035
248 1 3.538 7.30155 43.6656 -3.49178
249 1 5.39523 9.01976 43.6799 -3.54274
250 1 5.32073 7.19376 1.60073 -3.51182
251 1 3.39676 8.86882 1.48219 -3.45338
252 1 7.18173 7.11564 -0.384133 -3.52373
253 1 8.9392 8.90438 43.641 -3.47649
254 1 8.94991 7.17106 1.45938 -3.51324
255 1 7.28599 8.92853 1.52494 -3.4958
256 1 10.8755 7.15766 43.5885 -3.48665
257 1 12.5804 9.02886 -0.287595 -3.4804
258 1 12.5741 7.14517 1.49681 -3.5138
259 1 10.7294 8.83417 1.4319 -3.49995
260 1 14.5154 7.01183 -0.274181 -3.33771
261 1 16.2419 7.11759 1.63577 -2.73789
262 1 14.3459 8.93898 1.3798 -3.17537
263 1 -14.2349 11.02 43.2585 -2.74285
264 1 -12.4641 12.7791 43.4296 -2.85729
265 1 -12.6978 10.7479 1.26639 -3.30093
266 1 -10.8459 10.8113 43.5651 -3.48001
267 1 -8.93722 12.5635 -0.126412 -3.46806
268 1 -8.90457 10.7831 1.44892 -3.48073
269 1 -10.9414 12.5114 1.31335 -3.29853
270 1 -7.0899 10.8469 43.7437 -3.48493
271 1 -5.34329 12.615 -0.32885 -3.46244
272 1 -5.28548 10.9152 1.33359 -3.4752
273 1 -7.16921 12.6539 1.59914 -3.50864
274 1 -3.36826 10.763 43.5148 -3.47619
275 1 -1.66249 12.718 43.7629 -3.5104
276 1 -1.63998 11.0145 1.53536 -3.51269
277 1 -3.52098 12.7178 1.61373 -3.46331
278 1 0.0855044 10.7941 43.7265 -3.50857
279 1 1.8897 12.578 43.5966 -3.52416
280 1 1.74985 10.8027 1.55225 -3.5349
281 1 0.131927 12.803 1.45654 -3.54383
282 1 3.62168 10.7959 -0.163625 -3.48206
283 1 5.4683 12.5473 -0.308644 -3.56296
284 1 5.24258 10.7082 1.53979 -3.44054
285 1 3.58163 12.6152 1.64005 -3.44174
286 1 7.20629 10.7981 43.6381 -3.52613
287 1 9.06207 12.6063 43.7459 -3.4629
288 1 9.03579 10.6073 1.39334 -3.47817
289 1 7.27981 12.5421 1.48287 -3.49898
290 1 10.7341 10.6514 43.6134 -3.49497
291 1 12.5895 12.3862 43.4818 -2.91858
292 1 12.4584 10.7755 1.47102 -3.36248
293 1 10.8596 12.6633 1.38591 -3.3081
294 1 14.4174 10.8685 -0.316227 -2.67529
295 1 -10.4918 14.6154 -0.341722 -2.66985
296 1 -8.96509 14.3806 1.57503 -3.11232
297 1 -7.19497 14.4907 -0.236636 -3.36571
298 1 -5.15709 16.2355 43.5949 -3.00665
299 1 -5.22338 14.4599 1.56012 -3.44177
300 1 -6.97081 16.1995 1.49815 -2.73848
301 1 -3.58798 14.5131 43.6737 -3.43483
302 1 -1.77348 16.2145 -0.300766 -3.17614
303 1 -1.72088 14.5471 1.51585 -3.44619
304 1 -3.51724 16.2249 1.60529 -3.04146
305 1 0.21162 14.5491 43.5785 -3.51183
306 1 2.04633 16.3925 43.5318 -3.1357
307 1 2.03576 14.5343 1.49398 -3.46645
308 1 0.175732 16.1239 1.4265 -3.23445
309 1 3.67277 14.2945 43.6487 -3.43627
310 1 5.37329 15.8435 43.531 -2.96814
311 1 5.29981 14.4566 1.54773 -3.43474
312 1 3.67244 16.2891 1.49171 -3.04066
313 1 7.30083 14.3819 43.6632 -3.36393
314 1 8.97255 14.4606 1.50253 -3.1216
315 1 6.9801 16.1743 1.3945 -2.75312
316 1 10.8731 14.2577 43.5605 -2.73194
317 1 -0.063613 17.9651 -0.0696751 -2.34492
318 1 -5.4256 -16.1948 3.4436 -2.97651
319 1 -7.22 -16.1372 5.4175 -2.68713
320 1 -1.77418 -16.2588 3.17769 -3.09349
321 1 -3.56189 -16.0902 4.99284 -3.03045
322 1 -0.112543 -17.8007 3.13352 -2.37236
323 1 1.82568 -16.3489 3.34298 -3.13762
324 1 0.104528 -16.2288 5.13249 -3.22565
325 1 5.33729 -16.0481 3.30563 -3.03671
326 1 3.56822 -16.3289 5.17188 -3.02066
327 1 7.12867 -16.1267 5.05368 -2.70419
328 1 -12.5255 -12.4924 3.22981 -2.85682
329 1 -10.623 -14.3112 3.33451 -2.72568
330 1 -8.98173 -12.525 3.31164 -3.46774
331 1 -8.97053 -14.2958 5.13598 -3.12447
332 1 -10.929 -12.6012 5.185 -3.33987
333 1 -7.16914 -14.4298 3.2475 -3.34802
334 1 -5.44737 -12.6304 3.30826 -3.5167
335 1 -5.54485 -14.3669 5.11047 -3.47192
336 1 -7.31777 -12.5646 5.08279 -3.48188
337 1 -3.56724 -14.3939 3.30397 -3.46559
338 1 -1.77218 -12.5756 3.2906 -3.51122
339 1 -1.7646 -14.4051 5.12046 -3.48378
340 1 -3.62285 -12.5787 5.16939 -3.53664
341 1 -0.0797601 -14.4513 3.30745 -3.53593
342 1 1.71659 -12.5417 3.47905 -3.45837
343 1 1.81545 -14.2872 5.18622 -3.45905
344 1 0.0593092 -12.6367 5.25035 -3.50008
345 1 3.44288 -14.4647 3.43972 -3.42536
346 1 5.36339 -12.4999 3.37917 -3.44892
347 1 5.39923 -14.3278 5.086 -3.48357
348 1 3.54326 -12.5779 5.30791 -3.51237
349 1 7.3714 -14.3954 3.2838 -3.3263
350 1 9.23476 -12.5426 3.2909 -3.40905
351 1 9.15822 -14.2292 5.20889 -3.10552
352 1 7.22091 -12.6216 5.17111 -3.51303
353 1 10.9591 -14.2716 3.29224 -2.678
354 1 12.6613 -12.47 3.24038 -2.84829
355 1 11.0048 -12.8126 5.46104 -3.25269
356 1 -14.3541 -10.7156 3.68987 -2.71458
357 1 -12.5811 -9.03172 3.38143 -3.45485
358 1 -12.57 -10.5983 5.29963 -3.32781
359 1 -14.3581 -8.71633 5.23796 -3.16218
360 1 -10.7793 -10.8076 3.34964 -3.48166
361 1 -9.03936 -9.08472 3.3496 -3.48007
362 1 -9.02412 -10.727 5.14882 -3.51067
363 1 -10.8772 -8.84223 5.10243 -3.4747
364 1 -7.19897 -10.786 3.34133 -3.52373
365 1 -5.22816 -8.86608 3.42255 -3.49912
366 1 -5.38451 -10.8013 5.0826 -3.50947
367 1 -7.19425 -8.97967 5.1365 -3.51628
368 1 -3.67751 -10.7448 3.39296 -3.49482
369 1 -1.79569 -8.9602 3.40054 -3.49872
370 1 -1.79323 -10.6977 5.25593 -3.5054
371 1 -3.4518 -8.88192 5.1769 -3.48175
372 1 -0.00268147 -10.8113 3.4632 -3.51713
373 1 1.64201 -8.9801 3.3964 -3.44395
374 1 1.85424 -10.8686 5.2258 -3.45963
375 1 -0.0849944 -8.88999 5.18562 -3.46551
376 1 3.3885 -10.8058 3.46035 -3.4517
377 1 5.46638 -9.08944 3.43648 -3.47567
378 1 5.39872 -10.8319 5.12263 -3.51392
379 1 3.66427 -9.00394 5.24038 -3.52238
380 1 7.41643 -10.8769 3.40914 -3.51104
381 1 9.14325 -9.01691 3.57197 -3.45494
382 1 9.24297 -10.9308 5.2588 -3.53992
383 1 7.35746 -9.02644 5.24587 -3.50516
384 1 10.9445 -10.7324 3.51744 -3.45522
385 1 12.8087 -9.0006 3.41112 -3.4575
386 1 12.6249 -10.885 5.3664 -3.34324
387 1 10.977 -9.01663 5.20628 -3.49302
388 1 14.4372 -10.7534 3.41907 -2.71354
389 1 14.4808 -9.06123 5.37534 -3.13561
390 1 -16.3513 -5.49088 3.35905 -2.93312
391 1 -16.2554 -7.04993 5.42074 -2.68194
392 1 -14.312 -7.15891 3.35785 -3.3789
393 1 -12.6747 -5.22784 3.33801 -3.46218
394 1 -12.5988 -7.13542 5.35555 -3.44836
395 1 -14.4077 -5.49769 5.31925 -3.45644
396 1 -10.8928 -7.03704 3.33021 -3.53574
397 1 -8.97357 -5.36871 3.31252 -3.46798
398 1 -8.98273 -7.35673 5.12277 -3.48044
399 1 -10.7363 -5.4225 5.1781 -3.54295
400 1 -7.29861 -7.20608 3.30016 -3.47989
401 1 -5.41697 -5.39786 3.39189 -3.52571
402 1 -5.43103 -7.14737 5.27289 -3.48963
403 1 -7.28908 -5.37705 5.1676 -3.55012
404 1 -3.53234 -7.10801 3.31302 -3.51202
405 1 -1.8626 -5.23131 3.46485 -3.48592
406 1 -1.75197 -7.06237 5.24851 -3.51671
407 1 -3.5892 -5.22913 5.25594 -3.49321
408 1 0.114416 -7.24735 3.3377 -3.4638
409 1 1.79494 -5.4152 3.38945 -3.48799
410 1 1.84645 -7.25484 5.27525 -3.49625
411 1 0.0932074 -5.24853 5.18673 -3.53518
412 1 3.55484 -7.05702 3.44729 -3.49966
413 1 5.40508 -5.39145 3.42439 -3.52572
414 1 5.38981 -7.27569 5.29121 -3.52754
415 1 3.59647 -5.46574 5.35688 -3.52315
416 1 7.16997 -7.24389 3.2921 -3.51975
417 1 8.96646 -5.4279 3.44364 -3.50204
418 1 9.02514 -7.31379 5.18512 -3.4725
419 1 7.20294 -5.53541 5.20988 -3.51942
420 1 10.8825 -7.22489 3.33841 -3.50802
421 1 12.7578 -5.40772 3.3058 -3.51918
422 1 12.8249 -7.2761 5.2017 -3.51941
423 1 10.9876 -5.39778 5.24722 -3.49811
424 1 14.6378 -7.36262 3.40821 -3.30693
425 1 16.216 -5.32939 3.37527 -2.9887
426 1 16.1747 -7.07902 5.38971 -2.72608
427 1 14.588 -5.33395 5.30125 -3.4326
428 1 -16.2296 -1.88813 3.15755 -3.12122
429 1 -16.0276 -3.54333 5.14973 -3.03376
430 1 -14.5301 -3.57268 3.26173 -3.41185
431 1 -12.5721 -1.83064 3.04587 -3.48156
432 1 -12.645 -3.57117 5.08079 -3.50188
433 1 -14.3945 -1.85373 4.95907 -3.44242
434 1 -10.7879 -3.62198 3.3383 -3.52069
435 1 -9.14058 -1.78157 3.28718 -3.47783
436 1 -8.99341 -3.49869 5.19564 -3.51231
437 1 -10.9127 -1.87426 5.13741 -3.44161
438 1 -7.24335 -3.60083 3.40501 -3.53863
439 1 -5.37942 -1.80087 3.37889 -3.4953
440 1 -5.47591 -3.54236 5.27366 -3.50307
441 1 -7.12156 -1.82576 5.28109 -3.47823
442 1 -3.69855 -3.64747 3.38723 -3.46361
443 1 -1.86238 -1.63597 3.4141 -3.5177
444 1 -1.85358 -3.49285 5.24555 -3.49617
445 1 -3.69497 -1.81499 5.17192 -3.5001
446 1 0.00766097 -3.39521 3.31117 -3.47663
447 1 1.80764 -1.78404 3.40343 -3.50266
448 1 1.85934 -3.48176 5.43337 -3.51482
449 1 -0.0272555 -1.8118 5.31631 -3.533
450 1 3.59179 -3.60788 3.30129 -3.47332
451 1 5.30051 -2.05792 3.41891 -3.41391
452 1 5.29939 -3.58326 5.252 -3.46387
453 1 3.59084 -1.70068 5.25513 -3.48062
454 1 7.22625 -3.73953 3.43949 -3.50288
455 1 9.03521 -1.93178 3.29627 -3.48597
456 1 9.15808 -3.76731 5.13616 -3.46415
457 1 7.16278 -1.90443 5.15001 -3.51195
458 1 10.8883 -3.58855 3.28561 -3.46252
459 1 12.5701 -1.78669 3.45197 -3.49166
460 1 12.6456 -3.65619 5.20103 -3.48997
461 1 10.7633 -1.95304 5.07019 -3.48554
462 1 14.378 -3.53406 3.48701 -3.48455
463 1 16.1148 -1.59018 3.33737 -3.16666
464 1 16.2783 -3.46615 5.33945 -3.01487
465 1 14.3977 -1.75389 5.24793 -3.47234
466 1 -17.8109 -0.0128219 3.22207 -2.38006
467 1 -16.2086 1.80619 3.41672 -3.14299
468 1 -16.3401 0.0239151 5.09221 -3.19956
469 1 -14.5635 0.0103396 3.32593 -3.51389
470 1 -12.5548 1.75868 3.23109 -3.51789
471 1 -12.6053 -0.0246979 5.10653 -3.50856
472 1 -14.3951 1.77882 5.23355 -3.49893
473 1 -10.8012 0.0346807 3.25762 -3.47587
474 1 -9.0863 1.83855 3.55042 -3.51666
475 1 -9.07892 -0.0347593 5.24221 -3.55743
476 1 -10.9361 1.8114 5.25282 -3.506
477 1 -7.35043 -0.0950787 3.37292 -3.51335
478 1 -5.56634 1.83505 3.48271 -3.50303
479 1 -5.44363 -0.106122 5.21959 -3.47299
480 1 -7.16699 1.82716 5.282 -3.51055
481 1 -3.70288 0.0172123 3.44991 -3.45139
482 1 -2.03455 1.7021 3.37765 -3.46395
483 1 -1.91894 0.0369697 5.3408 -3.52313
484 1 -3.74448 1.71018 5.16813 -3.48062
485 1 -0.0359924 0.0394022 3.38982 -3.53075
486 1 1.6928 1.70694 3.33254 -3.483
487 1 1.7686 -0.0843296 5.20602 -3.495
488 1 0.0049623 1.87377 5.14814 -3.49756
489 1 3.63222 -0.0790527 3.29916 -3.52905
490 1 5.22196 1.83734 3.27717 -3.47042
491 1 5.42151 0.0863068 5.20813 -3.50258
492 1 3.44192 1.74022 5.19369 -3.53303
493 1 6.94886 -0.0758188 3.28005 -3.53776
494 1 8.88503 1.7223 3.39581 -3.49336
495 1 8.79106 -0.09407 5.15975 -3.49181
496 1 7.11713 1.82208 5.12309 -3.48163
497 1 10.7087 0.0361767 3.29299 -3.53353
498 1 12.53 1.98777 3.39376 -3.5187
499 1 12.5022 0.05862 5.15757 -3.50777
500 1 10.648 1.77947 5.20075 -3.5105
501 1 14.2606 -0.0137011 3.41415 -3.48274
502 1 16.0536 1.7837 3.51388 -3.18511
503 1 15.9752 0.105161 5.25509 -3.18826
504 1 14.184 2.04417 5.21224 -3.48156
505 1 17.9139 0.171388 3.87941 -2.32027
506 1 -15.9298 5.15275 3.14427 -2.9829
507 1 -16.1812 3.67188 5.05904 -3.03163
508 1 -14.3112 3.46616 3.14162 -3.43982
509 1 -12.5515 5.28796 3.17039 -3.50207
510 1 -12.6932 3.61946 5.12245 -3.50339
511 1 -14.3257 5.41235 5.07881 -3.45784
512 1 -10.7842 3.68768 3.39872 -3.49552
513 1 -9.01422 5.52074 3.24738 -3.50245
514 1 -8.97196 3.64708 5.16935 -3.50264
515 1 -10.8835 5.3965 5.1758 -3.53704
516 1 -7.32394 3.65354 3.15868 -3.47136
517 1 -5.3519 5.46937 3.25234 -3.48295
518 1 -5.46813 3.76775 5.16289 -3.5257
519 1 -7.22461 5.52621 5.03285 -3.5082
520 1 -3.77508 3.57852 3.45071 -3.45467
521 1 -1.91419 5.33196 3.41373 -3.52534
522 1 -1.98786 3.44842 5.09582 -3.46709
523 1 -3.6589 5.43349 5.09761 -3.49469
524 1 -0.14552 3.31209 3.23849 -3.44216
525 1 1.68609 5.33751 3.3752 -3.51787
526 1 1.81837 3.58375 5.16574 -3.48049
527 1 -0.0706915 5.35076 5.10926 -3.52273
528 1 3.62003 3.69829 3.30384 -3.47516
529 1 5.2849 5.44517 3.38814 -3.49665
530 1 5.36465 3.55095 5.33 -3.51959
531 1 3.50027 5.29231 5.20168 -3.49361
532 1 7.09078 3.53348 3.37382 -3.51926
533 1 8.93121 5.40961 3.30359 -3.51576
534 1 8.87207 3.63114 5.14055 -3.51451
535 1 7.06902 5.34681 5.107 -3.49269
536 1 10.6688 3.57374 3.44209 -3.48355
537 1 12.6151 5.29836 3.43342 -3.52327
538 1 12.3996 3.65543 5.24725 -3.46196
539 1 10.7435 5.46859 5.20046 -3.46265
540 1 14.4464 3.80719 3.54355 -3.37722
541 1 16.1334 5.46421 3.40132 -2.98547
542 1 16.4249 3.67148 5.224 -3.00137
543 1 14.5226 5.45667 5.21659 -3.39806
544 1 -16.1352 7.13201 5.12045 -2.67581
545 1 -14.5068 7.23737 3.1778 -3.33484
546 1 -12.4884 9.03163 3.15995 -3.47433
547 1 -12.7828 7.31227 5.15205 -3.44853
548 1 -14.3247 9.07374 4.91505 -3.09062
549 1 -10.7388 7.25766 3.34844 -3.50021
550 1 -9.07921 9.11802 3.21294 -3.48046
551 1 -9.09809 7.30406 5.1842 -3.51409
552 1 -10.9803 9.10025 5.18035 -3.52654
553 1 -7.16247 7.25258 3.27497 -3.52612
554 1 -5.25098 9.10752 3.42983 -3.52646
555 1 -5.38271 7.25022 5.14589 -3.53164
556 1 -7.26182 9.03273 5.07656 -3.50317
557 1 -3.54537 7.21331 3.26714 -3.50733
558 1 -1.80843 9.15463 3.23575 -3.50961
559 1 -1.84637 7.31372 5.15307 -3.48265
560 1 -3.42772 9.02641 5.31711 -3.4578
561 1 -0.0426566 7.19767 3.2669 -3.51992
562 1 1.78246 8.98923 3.38284 -3.47163
563 1 1.83744 7.18104 5.21477 -3.49743
564 1 -0.0962631 9.08892 5.0504 -3.53428
565 1 3.49022 7.25324 3.26413 -3.47858
566 1 5.38898 8.92259 3.38558 -3.51928
567 1 5.49195 7.19153 5.18573 -3.4731
568 1 3.5389 8.98274 5.04908 -3.50126
569 1 7.2168 7.21072 3.34548 -3.52656
570 1 9.0016 9.07918 3.34419 -3.49399
571 1 9.07762 7.24429 5.14334 -3.52362
572 1 7.2096 9.03462 5.20257 -3.46813
573 1 10.7677 7.10842 3.3436 -3.50813
574 1 12.549 8.91269 3.11413 -3.4548
575 1 12.5829 7.2718 5.06087 -3.52511
576 1 10.8632 8.96598 5.0196 -3.49211
577 1 14.3661 7.16388 3.25911 -3.39689
578 1 16.1984 7.31406 5.06461 -2.70755
579 1 14.3588 9.043 4.99683 -3.13188
580 1 -14.3049 10.72 3.07877 -2.72607
581 1 -12.5939 12.5014 3.05243 -2.86598
582 1 -12.5882 10.9838 5.08449 -3.32056
583 1 -10.7818 10.754 3.20756 -3.48656
584 1 -9.01261 12.6606 3.28235 -3.46142
585 1 -9.07101 10.805 5.10977 -3.5273
586 1 -10.8022 12.6292 5.10472 -3.32957
587 1 -7.17421 10.8271 3.22068 -3.5307
588 1 -5.34688 12.6507 3.31287 -3.50329
589 1 -5.35974 10.8351 5.16726 -3.52276
590 1 -7.19238 12.7867 4.99806 -3.50017
591 1 -3.55837 10.9895 3.28594 -3.48114
592 1 -1.67453 12.8835 3.35794 -3.51261
593 1 -1.80288 10.9875 5.14152 -3.53284
594 1 -3.56759 12.7176 5.21044 -3.52006
595 1 -0.0101461 10.9822 3.38051 -3.50503
596 1 1.94014 12.7097 3.38734 -3.48799
597 1 1.74456 10.8453 5.04568 -3.50992
598 1 0.0112941 12.8657 5.29667 -3.48707
599 1 3.64282 10.82 3.28553 -3.49713
600 1 5.42515 12.5624 3.1193 -3.46486
601 1 5.50695 10.8495 5.20203 -3.51555
602 1 3.65406 12.616 5.1621 -3.51072
603 1 7.24665 10.6293 3.44859 -3.44939
604 1 8.97452 12.4387 3.22016 -3.52171
605 1 9.09859 10.8628 5.25969 -3.49152
606 1 7.23092 12.7073 5.07841 -3.53279
607 1 10.8345 10.7625 3.3579 -3.47555
608 1 12.4865 12.5845 3.2324 -2.87217
609 1 12.5161 10.7806 5.08557 -3.33902
610 1 10.7564 12.6272 5.16083 -3.33262
611 1 14.2279 10.7948 3.34359 -2.73042
612 1 -10.7465 14.2951 3.32333 -2.7103
613 1 -8.93613 14.4461 5.21012 -3.13104
614 1 -7.10428 14.6213 3.24535 -3.33586
615 1 -5.27051 16.3409 3.37566 -3.00802
616 1 -5.40862 14.4044 5.14538 -3.44834
617 1 -7.18693 16.1773 5.19648 -2.7329
618 1 -3.54968 14.4339 3.27723 -3.43919
619 1 -1.72811 16.2667 3.23371 -3.15407
620 1 -1.73197 14.608 5.18066 -3.4795
621 1 -3.55428 16.2811 5.23092 -3.03112
622 1 0.123429 14.624 3.36052 -3.50897
623 1 1.94075 16.3976 3.30444 -3.1591
624 1 1.97508 14.4626 5.11546 -3.44728
625 1 0.114753 16.4593 5.08046 -3.19827
626 1 3.64999 14.491 3.43574 -3.46624
627 1 5.49664 16.4055 3.40489 -2.96935
628 1 5.46623 14.6232 5.13861 -3.43713
629 1 3.76553 16.5455 5.08451 -2.97072
630 1 7.20982 14.4122 3.2241 -3.38652
631 1 8.99852 14.3327 4.90475 -3.09344
632 1 7.29429 16.1507 5.0856 -2.71092
633 1 10.6342 14.4155 3.26467 -2.71057
634 1 0.074255 17.9826 3.02716 -2.38695
635 1 -5.32822 -16.3179 7.0891 -2.90364
636 1 -7.20742 -16.0809 8.85946 -2.73702
637 1 -1.97878 -16.0847 6.98121 -3.08873
638 1 -3.76584 -15.8275 8.90713 -3.01159
639 1 -0.148918 -17.5831 7.00795 -2.40548
640 1 1.86397 -16.208 7.03437 -3.13976
641 1 -0.11742 -15.9868 8.89055 -3.10403
642 1 5.49741 -16.2822 6.94624 -2.9637
643 1 3.81461 -16.2495 8.85876 -3.03061
644 1 6.86755 -16.2781 9.13627 -2.68313
645 1 -12.5704 -12.3902 7.18506 -2.86587
646 1 -10.7345 -14.256 7.02714 -2.7481
647 1 -9.04219 -12.4627 7.11272 -3.46896
648 1 -8.89877 -14.2907 8.92228 -3.11595
649 1 -10.826 -12.6463 8.92259 -3.32629
650 1 -7.42639 -14.3461 7.03535 -3.32553
651 1 -5.54643 -12.5256 6.97581 -3.52139
652 1 -5.48411 -14.2316 8.84109 -3.43219
653 1 -7.29292 -12.5345 8.90808 -3.4825
654 1 -3.55136 -14.329 6.9325 -3.43761
655 1 -1.79187 -12.4675 7.07 -3.50761
656 1 -1.85033 -14.4279 8.8105 -3.41938
657 1 -3.64693 -12.5836 8.82731 -3.54079
658 1 0.0657752 -14.4538 7.02712 -3.5269
659 1 1.81504 -12.695 7.23097 -3.48296
660 1 1.77773 -14.4558 8.88911 -3.47567
661 1 -0.0245449 -12.5683 8.82325 -3.50378
662 1 3.63285 -14.4415 7.02788 -3.4946
663 1 5.44145 -12.5372 6.99524 -3.51335
664 1 5.37711 -14.4115 8.82333 -3.43711
665 1 3.70114 -12.6348 8.76652 -3.46616
666 1 7.23674 -14.506 6.81191 -3.30748
667 1 9.1376 -12.6672 7.11384 -3.41091
668 1 8.92743 -14.6402 8.97783 -3.10254
669 1 7.3833 -12.6429 8.79223 -3.51727
670 1 10.7911 -14.5626 7.12148 -2.67891
671 1 12.7134 -12.7067 7.50445 -2.84711
672 1 10.7228 -12.6928 8.88704 -3.29121
673 1 -14.3558 -10.641 7.1173 -2.7564
674 1 -12.6453 -8.81837 7.07803 -3.48801
675 1 -12.5316 -10.7507 8.96193 -3.35587
676 1 -14.4866 -8.83932 8.85525 -3.1398
677 1 -10.9068 -10.7312 7.10076 -3.43941
678 1 -9.14159 -9.0753 6.89591 -3.47976
679 1 -9.0984 -10.7337 8.76504 -3.4698
680 1 -10.8046 -9.02573 8.91895 -3.48884
681 1 -7.22741 -10.7852 6.90339 -3.51666
682 1 -5.25805 -8.85443 6.97069 -3.46017
683 1 -5.49802 -10.7386 8.85135 -3.53502
684 1 -7.24395 -9.02941 8.80471 -3.52368
685 1 -3.69062 -10.7419 7.00772 -3.53835
686 1 -1.8322 -9.00139 7.00138 -3.50343
687 1 -1.86095 -10.7606 8.86729 -3.51249
688 1 -3.4942 -8.88824 8.80668 -3.4864
689 1 0.0120154 -10.8316 7.04455 -3.51122
690 1 1.81872 -9.10548 7.01479 -3.52679
691 1 1.81101 -10.9314 8.93579 -3.48359
692 1 -0.0850581 -8.8951 8.99953 -3.46818
693 1 3.68835 -10.7977 7.13035 -3.51949
694 1 5.38854 -9.04376 7.1388 -3.49256
695 1 5.5566 -10.741 8.92807 -3.49151
696 1 3.60053 -9.0451 9.03722 -3.51426
697 1 7.22998 -10.7413 7.0747 -3.53059
698 1 9.11478 -9.04368 7.07769 -3.54299
699 1 9.16141 -10.7801 8.86119 -3.5005
700 1 7.19826 -8.99825 8.97662 -3.47933
701 1 10.8499 -10.9052 7.10096 -3.46277
702 1 12.5516 -8.94113 7.11323 -3.46326
703 1 12.4063 -10.5903 8.92293 -3.30942
704 1 10.8283 -8.87887 8.9593 -3.46283
705 1 14.247 -10.914 7.19017 -2.73239
706 1 14.4018 -9.00703 8.9437 -3.15979
707 1 -16.2865 -5.28615 6.99716 -2.98571
708 1 -16.3219 -7.01608 8.83192 -2.74978
709 1 -14.4581 -7.08567 7.23012 -3.34543
710 1 -12.4408 -5.29489 7.12569 -3.51899
711 1 -12.6151 -7.07256 8.87782 -3.50877
712 1 -14.3584 -5.25141 8.84865 -3.47791
713 1 -10.6625 -7.14974 7.00067 -3.48454
714 1 -9.06546 -5.3555 7.08379 -3.53194
715 1 -8.94222 -7.14886 8.77111 -3.48616
716 1 -10.7991 -5.26672 8.975 -3.52544
717 1 -7.23017 -7.27426 7.05982 -3.50835
718 1 -5.56888 -5.51695 7.10952 -3.49525
719 1 -5.40735 -7.11151 8.94189 -3.51903
720 1 -7.2591 -5.44563 8.94667 -3.47269
721 1 -3.64749 -7.18381 6.99878 -3.46556
722 1 -1.8136 -5.29464 7.04689 -3.53346
723 1 -1.85477 -7.12963 8.95287 -3.49866
724 1 -3.61391 -5.31126 8.88647 -3.52243
725 1 0.0732552 -7.21898 6.91544 -3.47394
726 1 1.77772 -5.42078 7.17531 -3.5237
727 1 1.72428 -7.35576 8.92202 -3.49788
728 1 -0.0558187 -5.45589 9.00005 -3.52836
729 1 3.59586 -7.2204 7.17121 -3.52965
730 1 5.41356 -5.41247 7.07296 -3.49593
731 1 5.41993 -7.25359 8.84644 -3.50506
732 1 3.71915 -5.40171 8.84415 -3.50952
733 1 7.14852 -7.27668 7.10045 -3.5224
734 1 9.05176 -5.46815 6.96532 -3.53606
735 1 9.04739 -7.26037 8.7714 -3.49993
736 1 7.13781 -5.35522 8.8218 -3.50975
737 1 10.9468 -7.2067 7.00864 -3.50308
738 1 12.8111 -5.38514 6.97553 -3.4981
739 1 12.6947 -7.08404 8.91259 -3.52962
740 1 10.8068 -5.4657 8.93861 -3.52114
741 1 14.5301 -7.24076 7.1771 -3.32878
742 1 16.4179 -5.30855 7.1946 -2.9668
743 1 16.126 -7.09937 8.9222 -2.7391
744 1 14.4748 -5.39003 8.97119 -3.40594
745 1 -16.2192 -1.82239 6.92056 -3.12298
746 1 -16.093 -3.5765 8.7964 -3.04433
747 1 -14.3481 -3.6424 6.92004 -3.47129