ITEM: TIMESTEP
78000
ITEM: NUMBER OF ATOMS
3804
ITEM: BOX BOUNDS ss ss pp
-1.7539379234109202e+01 1.7659058642129924e+01
-1.7527821596801978e+01 1.7595936385375573e+01
-1.6918200000000001e+00 4.5071820000000002e+01
ITEM: ATOMS id type x y z c_peratom
1 1 -5.49479 -15.9223 -1.60988 -2.93516
2 1 -7.13019 -16.0392 0.338555 -2.64028
3 1 -1.9753 -15.9351 -1.5403 -3.09713
4 1 -3.62236 -15.8969 0.356949 -3.02327
5 1 0.149009 -17.4233 -1.37119 -2.24718
6 1 1.71677 -15.7982 -1.43191 -3.01917
7 1 -0.0644064 -15.7907 0.441316 -3.23871
8 1 5.0082 -15.8347 -1.64352 -2.98825
9 1 3.29828 -15.9127 0.435548 -3.04172
10 1 6.62313 -15.8774 0.252191 -2.66647
11 1 -12.2567 -12.2169 45.0732 -2.87861
12 1 -10.3714 -13.9936 -1.63957 -2.74845
13 1 -8.78732 -12.2934 45.0279 -3.3994
14 1 -8.90375 -14.0943 0.365351 -3.09407
15 1 -10.6018 -12.2522 0.18357 -3.34366
16 1 -7.17734 -14.2634 -1.64581 -3.35636
17 1 -5.3125 -12.2973 45.0094 -3.47756
18 1 -5.38303 -14.1907 0.308092 -3.45289
19 1 -7.12363 -12.4574 0.227605 -3.49458
20 1 -3.70541 -14.082 -1.4983 -3.47272
21 1 -1.89994 -12.339 -1.64599 -3.49008
22 1 -1.77047 -13.9621 0.285433 -3.473
23 1 -3.53478 -12.2203 0.288817 -3.48725
24 1 -0.119515 -14.0565 -1.62167 -3.5091
25 1 1.59578 -12.2871 44.9495 -3.48958
26 1 1.64559 -14.053 0.273608 -3.46509
27 1 -0.101525 -12.1773 0.234976 -3.47528
28 1 3.30573 -14.0574 -1.66834 -3.45716
29 1 5.21197 -12.2923 45.0034 -3.51125
30 1 5.20799 -14.0908 0.338801 -3.39398
31 1 3.39047 -12.3045 0.160336 -3.50432
32 1 6.88947 -14.372 45.0589 -3.31459
33 1 8.60225 -12.4489 -1.64984 -3.49947
34 1 8.6096 -14.0139 0.294869 -3.13224
35 1 6.86462 -12.3434 0.262935 -3.46668
36 1 10.3234 -14.3607 -1.5455 -2.65316
37 1 12.091 -12.4305 44.9492 -2.80832
38 1 10.6307 -12.4149 0.157463 -3.26666
39 1 -14.0557 -10.4662 45.0303 -2.73663
40 1 -12.2518 -8.83852 44.9975 -3.46269
41 1 -12.4241 -10.6584 0.119463 -3.26417
42 1 -13.8559 -8.66313 0.0310624 -3.05019
43 1 -10.5089 -10.6005 44.9882 -3.43832
44 1 -8.92091 -8.71297 -1.68127 -3.52861
45 1 -8.80734 -10.5848 0.201552 -3.51899
46 1 -10.6238 -8.90411 0.200348 -3.52688
47 1 -7.12943 -10.5397 45.0211 -3.49132
48 1 -5.37616 -8.88959 -1.61078 -3.49615
49 1 -5.34003 -10.6899 0.207833 -3.49183
50 1 -7.05181 -8.74904 0.264877 -3.51844
51 1 -3.66038 -10.5785 45.0538 -3.49537
52 1 -1.85959 -8.83404 45.0556 -3.50446
53 1 -1.79381 -10.4915 0.182561 -3.46159
54 1 -3.60021 -8.81184 0.255038 -3.49799
55 1 -0.275767 -10.6057 45.0117 -3.45956
56 1 1.6442 -8.84254 44.9184 -3.51778
57 1 1.6482 -10.5701 0.120439 -3.48142
58 1 -0.0658962 -8.80487 0.323737 -3.47568
59 1 3.50958 -10.5922 -1.53397 -3.43135
60 1 5.12479 -8.82741 -1.69415 -3.47392
61 1 5.23455 -10.536 0.285092 -3.49215
62 1 3.49095 -8.84763 0.228967 -3.48383
63 1 6.99293 -10.4392 45.0559 -3.52016
64 1 8.79531 -8.65755 45.0064 -3.4863
65 1 8.77998 -10.6399 0.249307 -3.50866
66 1 6.9683 -8.84498 0.194956 -3.47865
67 1 10.513 -10.6553 -1.56493 -3.48141
68 1 12.2132 -8.8486 45.0433 -3.43636
69 1 12.2171 -10.6333 0.445429 -3.29092
70 1 10.4294 -8.73535 0.229575 -3.50356
71 1 13.7199 -10.6571 -1.51765 -2.71966
72 1 13.9663 -8.81265 0.479009 -3.06911
73 1 -15.6079 -5.11782 -1.63551 -3.05776
74 1 -15.6285 -6.73086 0.267948 -2.72428
75 1 -14.1325 -7.14968 44.936 -3.29724
76 1 -12.6137 -5.30198 -1.59317 -3.48687
77 1 -12.3336 -7.04303 0.28841 -3.42786
78 1 -14.0514 -5.1725 0.345957 -3.26631
79 1 -10.4994 -6.8157 45.0352 -3.46486
80 1 -8.70358 -5.16939 44.9829 -3.4649
81 1 -8.82166 -7.01395 0.397113 -3.50401
82 1 -10.5531 -5.16401 0.0775606 -3.47705
83 1 -7.04931 -6.94647 -1.58097 -3.5062
84 1 -5.35109 -5.18828 45.0518 -3.50267
85 1 -5.23839 -7.08258 0.228508 -3.47836
86 1 -7.10444 -5.21081 0.310531 -3.50565
87 1 -3.56809 -7.00817 45.0554 -3.53774
88 1 -1.73285 -5.28369 44.9536 -3.50243
89 1 -1.77236 -7.01872 0.172507 -3.52412
90 1 -3.40869 -5.12837 0.194614 -3.49267
91 1 -0.0244519 -7.07343 -1.6776 -3.50295
92 1 1.63278 -5.29288 -1.66961 -3.47204
93 1 1.66782 -7.17501 0.269369 -3.47922
94 1 -0.0272602 -5.28485 0.201626 -3.52452
95 1 3.34482 -7.02145 -1.55939 -3.50589
96 1 5.26903 -5.23271 -1.65868 -3.51348
97 1 5.30905 -7.15772 0.163088 -3.48247
98 1 3.49026 -5.2746 0.275197 -3.54403
99 1 6.90461 -7.09613 45.0557 -3.4727
100 1 8.70971 -5.21539 -1.67589 -3.50948
101 1 8.77601 -6.92708 0.44345 -3.46511
102 1 6.94669 -5.23776 0.209308 -3.51633
103 1 10.5474 -6.8579 -1.64753 -3.46925
104 1 12.4318 -5.42138 -1.45895 -3.47214
105 1 12.2472 -7.08195 0.424066 -3.48707
106 1 10.5059 -5.13057 0.230029 -3.53193
107 1 14.1842 -7.16682 -1.58319 -3.27373
108 1 15.5823 -5.10288 -1.50943 -3.06
109 1 15.8747 -6.7422 0.222027 -2.6499
110 1 14.0729 -5.19486 0.447295 -3.36369
111 1 -15.9074 -1.9034 45.0006 -3.09886
112 1 -15.8913 -3.65354 0.501027 -3.02156
113 1 -13.9939 -3.32067 -1.56514 -3.39334
114 1 -12.3288 -1.57505 45.0156 -3.44813
115 1 -12.4223 -3.44216 0.363948 -3.48625
116 1 -14.2947 -1.69659 0.350381 -3.43705
117 1 -10.781 -3.39506 -1.63464 -3.47554
118 1 -8.92769 -1.82433 -1.64855 -3.50349
119 1 -8.88446 -3.387 0.375171 -3.47642
120 1 -10.5547 -1.62667 0.334175 -3.47758
121 1 -7.0862 -3.35539 45.0201 -3.4437
122 1 -5.35526 -1.75728 -1.58755 -3.45994
123 1 -5.25696 -3.45775 0.202718 -3.48549
124 1 -7.06984 -1.56119 0.211702 -3.52112
125 1 -3.54733 -3.55922 44.9878 -3.47309
126 1 -1.74276 -1.76005 -1.70128 -3.52559
127 1 -1.69484 -3.36384 0.285926 -3.44166
128 1 -3.46828 -1.69529 0.289924 -3.47777
129 1 0.0261726 -3.48809 -1.61971 -3.44172
130 1 1.61313 -1.77088 -1.43423 -3.4261
131 1 1.6095 -3.41396 0.289218 -3.45528
132 1 -0.0756639 -1.72731 0.432963 -3.41074
133 1 3.40105 -3.51159 -1.59923 -3.52912
134 1 5.12448 -1.7122 44.9564 -3.46052
135 1 5.21579 -3.46221 0.404758 -3.47977
136 1 3.46917 -1.68053 0.246406 -3.51892
137 1 6.94471 -3.42018 44.9884 -3.50847
138 1 8.95559 -1.89759 45.0391 -3.47891
139 1 8.726 -3.38908 0.158288 -3.48702
140 1 6.93097 -1.60411 0.383383 -3.38986
141 1 10.6546 -3.63428 45.038 -3.49586
142 1 12.2414 -1.57886 45.0544 -3.43939
143 1 12.4762 -3.47201 0.25994 -3.46897
144 1 10.6161 -1.90745 0.295465 -3.48664
145 1 13.8679 -3.40078 45.0193 -3.39928
146 1 15.8711 -2.16944 45.0337 -3.06986
147 1 15.8239 -3.52044 0.468403 -3.03287
148 1 14.2236 -1.66977 0.328539 -3.45324
149 1 -17.5242 -0.0256524 45.0433 -2.36184
150 1 -16.0395 1.90593 -1.64621 -3.1323
151 1 -15.9828 0.0198095 0.312396 -3.17438
152 1 -14.3513 0.0446185 -1.65267 -3.50879
153 1 -12.5259 1.77057 45.0211 -3.47227
154 1 -12.4168 0.0892213 0.247632 -3.53361
155 1 -14.1148 1.95525 0.140207 -3.49704
156 1 -10.5561 0.0868678 -1.62987 -3.46212
157 1 -8.90761 1.76192 45.0296 -3.49235
158 1 -8.92242 0.176912 0.294001 -3.44327
159 1 -10.6226 1.94313 0.411971 -3.43513
160 1 -7.12434 -0.0254067 -1.66561 -3.47744
161 1 -5.30531 1.64881 -1.66502 -3.4973
162 1 -5.15392 0.163744 0.389265 -3.50032
163 1 -7.14408 1.64965 0.153198 -3.46715
164 1 -3.54824 -0.0175087 -1.61854 -3.48316
165 1 -1.7643 1.71738 -1.5716 -3.48796
166 1 -1.83096 0.0165472 0.342034 -3.50235
167 1 -3.4843 1.92759 0.25507 -3.4699
168 1 -0.016576 0.071183 -1.67564 -3.4903
169 1 1.68748 2.01091 -1.58574 -3.47341
170 1 1.69247 0.0960742 0.349519 -3.53475
171 1 0.0164649 1.82453 0.184575 -3.49406
172 1 3.43076 0.00875758 -1.58684 -3.5053
173 1 5.38276 1.61813 44.9486 -3.50753
174 1 5.2894 0.0446046 0.317126 -3.41457
175 1 3.73495 1.79209 0.211264 -3.44717
176 1 7.15821 -0.15508 -1.63464 -3.47735
177 1 8.66007 1.69584 -1.63821 -3.50228
178 1 8.77381 -0.209008 0.269643 -3.46964
179 1 7.08798 1.71005 0.341387 -3.50823
180 1 10.6986 0.0863144 -1.49495 -3.39756
181 1 12.5377 1.59495 45.0644 -3.45391
182 1 12.4648 -0.0824759 0.381459 -3.4705
183 1 10.4299 1.65353 0.276536 -3.44682
184 1 14.335 -0.186388 44.9756 -3.49659
185 1 15.7963 1.76163 44.9861 -3.1378
186 1 16.056 -0.0312639 0.369936 -3.14178
187 1 14.159 1.6222 0.358527 -3.46405
188 1 17.3558 -0.183714 -1.66204 -2.40996
189 1 -15.9516 5.24201 -1.53212 -2.95486
190 1 -16.007 3.6611 0.348598 -2.99143
191 1 -14.1114 3.63354 45.0307 -3.42968
192 1 -12.4504 5.38349 -1.66065 -3.48418
193 1 -12.3401 3.6473 0.355169 -3.43777
194 1 -14.1653 5.17928 0.264071 -3.39402
195 1 -10.711 3.49846 45.0293 -3.54619
196 1 -8.78602 5.17655 45.0428 -3.4876
197 1 -8.96834 3.53719 0.108763 -3.47395
198 1 -10.6343 5.38392 0.183666 -3.50062
199 1 -7.05085 3.57287 -1.53237 -3.44874
200 1 -5.44259 5.33999 45.0107 -3.49791
201 1 -5.29324 3.51311 0.227104 -3.50105
202 1 -7.09347 5.34056 0.315814 -3.4705
203 1 -3.6286 3.65041 45.0311 -3.51544
204 1 -1.84289 5.34644 44.9306 -3.45895
205 1 -1.83903 3.72024 0.254306 -3.51067
206 1 -3.56549 5.35436 0.292561 -3.451
207 1 -0.00714414 3.68062 -1.68629 -3.43262
208 1 1.66158 5.33537 45.0228 -3.46245
209 1 1.988 3.40344 0.436001 -3.41338
210 1 0.299407 5.17368 0.257373 -3.43676
211 1 3.61462 3.6825 -1.64776 -3.51388
212 1 5.34467 5.4828 -1.62745 -3.45132
213 1 5.3412 3.66099 0.212538 -3.50089
214 1 3.59514 5.30705 0.173996 -3.47179
215 1 6.97101 3.55979 -1.67421 -3.48085
216 1 8.73466 5.27178 -1.47065 -3.47973
217 1 8.87724 3.52086 0.343217 -3.46148
218 1 7.14976 5.39479 0.329499 -3.47048
219 1 10.7725 3.23698 45.0398 -3.47342
220 1 12.2967 5.19717 -1.55709 -3.45825
221 1 12.367 3.34064 0.257525 -3.50612
222 1 10.5866 5.22572 0.427199 -3.49473
223 1 14.0242 3.46387 -1.59064 -3.44347
224 1 15.9642 5.05424 -1.59668 -2.98391
225 1 15.9829 3.38832 0.225196 -3.02203
226 1 14.0632 5.11851 0.347176 -3.4171
227 1 -15.8732 6.89187 0.354727 -2.72105
228 1 -14.2879 6.9512 44.8095 -3.31345
229 1 -12.3472 8.6716 45.0676 -3.43761
230 1 -12.6021 7.00631 0.283439 -3.47453
231 1 -14.3204 8.78758 0.225602 -3.03381
232 1 -10.6176 6.93611 45.0275 -3.48194
233 1 -8.89909 8.88622 -1.54347 -3.45836
234 1 -8.8148 6.96336 0.274627 -3.46682
235 1 -10.6031 8.73938 0.332422 -3.50265
236 1 -7.26907 7.12727 44.9832 -3.50356
237 1 -5.2939 8.77553 -1.66812 -3.49612
238 1 -5.37247 6.9896 0.230635 -3.45629
239 1 -7.06438 8.70876 0.438035 -3.47207
240 1 -3.49848 7.09708 44.932 -3.47839
241 1 -1.71691 8.83946 44.9067 -3.466
242 1 -1.64879 6.78321 0.163367 -3.45604
243 1 -3.44869 8.6037 0.0616956 -3.49328
244 1 -0.0197493 7.06198 44.9719 -3.4652
245 1 1.83603 8.71139 45.0355 -3.49658
246 1 1.8238 7.04796 0.224404 -3.49382
247 1 -0.108423 8.62312 0.0920134 -3.47294
248 1 3.50209 7.04283 45.0523 -3.47665
249 1 5.19227 8.93563 45.0088 -3.52228
250 1 5.28698 7.04954 0.368273 -3.50875
251 1 3.52437 8.82632 0.308702 -3.50611
252 1 7.06219 7.14408 -1.65586 -3.50773
253 1 8.94128 8.84335 45.0515 -3.52538
254 1 8.81804 7.22328 0.231723 -3.48821
255 1 7.08102 8.83248 0.265125 -3.49225
256 1 10.5316 6.97297 -1.64932 -3.47887
257 1 12.3128 8.70156 45.0516 -3.45035
258 1 12.3952 6.97826 0.183342 -3.50602
259 1 10.709 9.02185 0.19071 -3.48332
260 1 14.0829 6.84986 45.0183 -3.36646
261 1 15.6819 6.8594 0.11939 -2.74538
262 1 14.1374 8.87803 0.150065 -3.08809
263 1 -13.9977 10.3506 44.9807 -2.70891
264 1 -12.3172 12.3505 -1.66261 -2.82141
265 1 -12.3665 10.4294 0.342552 -3.30072
266 1 -10.5272 10.7416 45.0628 -3.45948
267 1 -8.70664 12.3577 45.0736 -3.38722
268 1 -8.87996 10.5872 0.262804 -3.52345
269 1 -10.7617 12.3412 0.318985 -3.27414
270 1 -7.09602 10.4464 45.0071 -3.48555
271 1 -5.17259 11.9926 45.0122 -3.41096
272 1 -5.26501 10.4178 0.294384 -3.51457
273 1 -6.91167 12.2763 0.0774647 -3.44779
274 1 -3.54618 10.4752 -1.65451 -3.36468
275 1 -1.65165 12.3113 45.0558 -3.52408
276 1 -1.71902 10.4781 0.213145 -3.47389
277 1 -3.40995 12.1209 0.249045 -3.47142
278 1 0.00259698 10.4732 -1.65878 -3.47144
279 1 1.56941 12.4332 45.0128 -3.49199
280 1 1.65859 10.5152 0.32399 -3.49911
281 1 0.0562261 12.3508 0.31299 -3.47435
282 1 3.4488 10.6698 45.0765 -3.50395
283 1 5.52271 12.3257 44.9736 -3.48493
284 1 5.25631 10.6283 0.0819719 -3.47526
285 1 3.53266 12.3674 0.249884 -3.47767
286 1 7.10614 10.5214 -1.49097 -3.43317
287 1 8.77857 12.3283 -1.63267 -3.43988
288 1 8.94698 10.6117 0.242226 -3.45191
289 1 7.0625 12.3908 0.263817 -3.51522
290 1 10.6689 10.8228 44.9099 -3.42348
291 1 12.4247 12.371 44.975 -2.75421
292 1 12.4414 10.7654 0.222356 -3.28753
293 1 10.5154 12.3271 0.159508 -3.30011
294 1 14.1317 10.3057 44.8899 -2.69438
295 1 -10.4365 14.0373 -1.43639 -2.74767
296 1 -8.71399 14.2383 0.330673 -3.02062
297 1 -7.10982 14.0753 -1.55016 -3.27462
298 1 -5.18255 15.6025 -1.66688 -2.99124
299 1 -5.18283 13.8901 0.185881 -3.41091
300 1 -6.68957 15.7766 0.320599 -2.74288
301 1 -3.49909 13.8521 -1.68994 -3.43322
302 1 -1.94091 15.8164 44.9805 -3.08846
303 1 -1.72367 14.2049 0.182168 -3.44965
304 1 -3.59849 15.6677 0.43252 -3.00105
305 1 0.000370741 14.3956 45.0644 -3.46045
306 1 1.86454 15.911 -1.63489 -3.07797
307 1 1.71931 14.1614 0.364582 -3.44057
308 1 0.0637376 15.832 0.494639 -3.14436
309 1 3.61474 13.9784 -1.64663 -3.48038
310 1 5.27345 15.9303 -1.62737 -2.96894
311 1 5.21849 14.0008 0.328264 -3.35534
312 1 3.64163 15.6921 0.287399 -3.04869
313 1 7.11192 14.1724 -1.61296 -3.35676
314 1 8.81444 14.2099 0.187153 -3.09444
315 1 6.81542 15.8084 0.292208 -2.75718
316 1 10.4214 14.1415 -1.664 -2.72091
317 1 0.00446212 17.3237 -1.39767 -2.39185
318 1 -5.28063 -15.8843 2.26051 -3.01143
319 1 -6.91779 -15.7507 4.17264 -2.72485
320 1 -1.85968 -15.8658 2.21641 -3.13406
321 1 -3.35103 -15.873 4.06974 -2.99301
322 1 -0.0182925 -17.4962 2.30954 -2.3675
323 1 1.694 -15.9047 2.30984 -3.0778
324 1 0.0646537 -15.9102 4.06073 -3.20361
325 1 5.04563 -15.9118 2.31738 -2.97651
326 1 3.31006 -15.8503 4.29236 -3.00924
327 1 7.01645 -15.7673 4.32495 -2.66935
328 1 -12.4133 -12.2999 2.05529 -2.79703
329 1 -10.5067 -13.8543 2.2719 -2.75203
330 1 -8.83813 -12.1409 2.24466 -3.40752
331 1 -8.91668 -14.0019 4.00082 -3.09243
332 1 -10.6444 -12.3998 4.23178 -3.27619
333 1 -7.22375 -14.2204 2.09791 -3.3566
334 1 -5.33698 -12.4879 2.1334 -3.45372
335 1 -5.17282 -14.0415 3.88608 -3.34816
336 1 -6.95038 -12.3059 4.1642 -3.50907
337 1 -3.49733 -14.0284 2.0323 -3.42838
338 1 -1.70254 -12.3268 2.17952 -3.47571
339 1 -1.66027 -14.1 4.17755 -3.47962
340 1 -3.43684 -12.4061 4.17228 -3.48526
341 1 0.049744 -14.16 2.19701 -3.48539
342 1 1.78385 -12.1718 2.17984 -3.54323
343 1 1.79824 -14.0867 4.16096 -3.45851
344 1 0.114451 -12.133 4.12435 -3.52011
345 1 3.39478 -14.1001 2.15607 -3.45952
346 1 5.07789 -12.3794 2.15037 -3.49004
347 1 5.10197 -14.1681 4.03073 -3.45861
348 1 3.41206 -12.2428 4.06783 -3.504
349 1 6.83192 -14.1373 2.25717 -3.35744
350 1 8.54555 -12.4255 2.1657 -3.40548
351 1 8.65658 -14.1197 4.09362 -3.09893
352 1 6.85088 -12.3134 4.00163 -3.49745
353 1 10.2931 -14.1029 2.11528 -2.69405
354 1 12.2175 -12.3568 2.27028 -2.79926
355 1 10.4158 -12.312 4.1027 -3.33327
356 1 -14.3968 -10.2541 2.12127 -2.57583
357 1 -12.366 -8.8562 2.12234 -3.45909
358 1 -12.543 -10.6796 4.11589 -3.30684
359 1 -14.0884 -8.78052 4.14211 -3.10744
360 1 -10.6435 -10.6166 2.21369 -3.45487
361 1 -8.89815 -8.90032 2.16409 -3.53349
362 1 -8.85414 -10.7014 4.17882 -3.48924
363 1 -10.6736 -8.82907 4.14986 -3.53684
364 1 -7.02371 -10.5976 2.14207 -3.49283
365 1 -5.24885 -8.81023 2.13768 -3.48633
366 1 -5.20217 -10.632 4.24981 -3.4812
367 1 -7.06652 -8.91314 4.04486 -3.5105
368 1 -3.45293 -10.5956 2.32819 -3.5337
369 1 -1.75405 -8.74273 2.26608 -3.49744
370 1 -1.8752 -10.4818 4.28251 -3.47296
371 1 -3.52067 -8.69759 4.12966 -3.48381
372 1 -0.140113 -10.534 2.29049 -3.47051
373 1 1.81782 -8.86793 2.11577 -3.52689
374 1 1.82468 -10.419 4.14065 -3.46337
375 1 0.0771754 -8.72729 4.07837 -3.47534
376 1 3.60419 -10.5053 2.3153 -3.43563
377 1 5.29332 -8.73245 2.23508 -3.49576
378 1 5.19438 -10.4032 4.13362 -3.465
379 1 3.5531 -8.76096 4.31543 -3.45916
380 1 6.95837 -10.5646 2.21268 -3.53002
381 1 8.68191 -8.64557 2.31406 -3.47101
382 1 8.54649 -10.6143 4.16825 -3.48438
383 1 7.0323 -8.67715 4.18263 -3.45961
384 1 10.2913 -10.4688 2.25286 -3.50626
385 1 12.1388 -8.71421 2.36822 -3.46825
386 1 12.1077 -10.3809 4.13276 -3.34895
387 1 10.3434 -8.60956 4.132 -3.51042
388 1 14.0574 -10.5384 2.47619 -2.64277
389 1 14.0902 -8.81677 4.20133 -3.10496
390 1 -15.8565 -5.41648 2.25102 -2.96726
391 1 -15.6669 -6.85063 4.34801 -2.7814
392 1 -14.127 -7.11066 2.27885 -3.37138
393 1 -12.3651 -5.18518 2.12763 -3.48247
394 1 -12.4457 -7.00714 4.22666 -3.48735
395 1 -14.0213 -5.17238 4.00844 -3.35069
396 1 -10.6349 -7.00914 2.27813 -3.50405
397 1 -8.94621 -5.15997 2.2634 -3.4903
398 1 -8.79699 -7.00015 4.07673 -3.51154
399 1 -10.5887 -5.13267 4.19069 -3.51867
400 1 -7.02236 -7.14405 2.34477 -3.48011
401 1 -5.29812 -5.25536 2.12991 -3.49843
402 1 -5.3199 -6.98811 4.1677 -3.49524
403 1 -7.07425 -5.13194 4.17673 -3.49858
404 1 -3.5969 -7.01904 2.10143 -3.48563
405 1 -1.83165 -5.23628 2.08381 -3.51069
406 1 -1.80028 -6.92875 4.12839 -3.52535
407 1 -3.5517 -5.21628 4.11922 -3.50371
408 1 -0.00395775 -7.0335 2.18582 -3.51633
409 1 1.84412 -5.37946 2.22571 -3.50753
410 1 1.75138 -7.10277 4.19242 -3.47267
411 1 0.00265662 -5.15537 4.12591 -3.48396
412 1 3.59767 -7.05403 2.18554 -3.4648
413 1 5.1202 -5.2747 2.22339 -3.45594
414 1 5.42291 -6.96796 4.09225 -3.45729
415 1 3.47185 -5.23877 4.16261 -3.5289
416 1 6.90155 -6.83016 2.20067 -3.47608
417 1 8.67278 -4.98159 2.13215 -3.5009
418 1 8.69471 -6.79941 4.03701 -3.47654
419 1 6.9477 -5.11679 4.13706 -3.48769
420 1 10.4123 -6.91441 2.15554 -3.46788
421 1 12.3341 -5.22366 2.24676 -3.52651
422 1 12.3506 -6.9477 4.15234 -3.51513
423 1 10.4177 -5.13847 4.19549 -3.48131
424 1 14.0712 -7.09229 2.27132 -3.35866
425 1 15.6781 -5.25483 2.39546 -3.00453
426 1 15.8308 -6.95029 4.10732 -2.69309
427 1 14.0843 -5.26672 4.21136 -3.4129
428 1 -16.0342 -1.83861 2.25615 -3.12285
429 1 -15.8638 -3.66739 4.11361 -3.03791
430 1 -14.1388 -3.44711 2.30603 -3.467
431 1 -12.2529 -1.6647 2.21224 -3.49871
432 1 -12.3895 -3.39472 4.2548 -3.48431
433 1 -14.178 -1.75745 4.10433 -3.45899
434 1 -10.6844 -3.48176 2.29357 -3.45735
435 1 -8.93254 -1.62845 2.18011 -3.51854
436 1 -8.81857 -3.36249 4.19454 -3.43887
437 1 -10.6178 -1.69255 4.21797 -3.53823
438 1 -7.02827 -3.32499 2.23758 -3.50211
439 1 -5.26522 -1.60208 2.38933 -3.39901
440 1 -5.48663 -3.27819 4.13086 -3.46832
441 1 -7.41134 -1.56962 4.27617 -3.38185
442 1 -3.66586 -3.39109 2.31636 -3.49534
443 1 -1.65466 -1.75561 2.28918 -3.48058
444 1 -1.77199 -3.53634 4.07159 -3.49152
445 1 -3.54134 -1.6679 4.14328 -3.498
446 1 -0.012854 -3.60354 2.14948 -3.49177
447 1 1.79167 -1.79126 2.24439 -3.49789
448 1 1.75031 -3.50647 4.24785 -3.46871
449 1 0.0368587 -1.77753 4.26856 -3.5108
450 1 3.43299 -3.45105 2.1309 -3.45889
451 1 5.21107 -1.75605 2.22652 -3.5013
452 1 5.25615 -3.3101 4.21256 -3.43888
453 1 3.44929 -1.64933 4.22243 -3.5043
454 1 6.95164 -3.42578 2.20001 -3.45893
455 1 8.7524 -1.78572 2.29717 -3.49117
456 1 8.79766 -3.39914 4.2181 -3.48795
457 1 7.00498 -1.79373 4.18516 -3.36179
458 1 10.6834 -3.34477 2.30803 -3.5141
459 1 12.5214 -1.64604 2.35291 -3.45861
460 1 12.2852 -3.45461 4.30182 -3.49177
461 1 10.5585 -1.58098 4.31177 -3.53435
462 1 14.009 -3.43411 2.29757 -3.41878
463 1 15.831 -1.82997 2.22401 -3.04263
464 1 15.8974 -3.63297 4.38423 -3.01618
465 1 14.2621 -1.67271 4.11738 -3.42026
466 1 -17.5352 0.245669 2.01864 -2.50867
467 1 -15.8226 1.94873 2.09024 -3.15928
468 1 -16.0695 -0.138115 4.10361 -3.14893
469 1 -14.2611 -0.064226 2.12539 -3.49895
470 1 -12.5017 1.71928 2.2605 -3.50324
471 1 -12.4499 0.0638329 4.12445 -3.50969
472 1 -14.4946 1.77125 4.09878 -3.52625
473 1 -10.6296 0.0981362 2.3852 -3.43744
474 1 -8.88002 1.83149 2.21402 -3.47688
475 1 -8.88551 0.223709 4.09788 -3.43308
476 1 -10.754 1.89135 4.13248 -3.49397
477 1 -7.02266 0.147804 2.24102 -3.52971
478 1 -5.32014 2.02668 2.27272 -3.52747
479 1 -5.43673 0.0903168 4.28064 -3.52118
480 1 -7.11855 1.86701 4.11405 -3.4963
481 1 -3.50046 0.0898427 2.3309 -3.48157
482 1 -1.67791 1.97957 2.14184 -3.49614
483 1 -1.71953 0.0218566 4.2603 -3.50676
484 1 -3.45751 1.76469 3.96146 -3.4254
485 1 -0.12357 0.0637771 2.24019 -3.48464
486 1 1.59906 1.83334 2.22727 -3.45396
487 1 1.70627 0.0888951 3.99537 -3.48589
488 1 0.00598002 1.96998 4.15328 -3.53385
489 1 3.39356 0.0591491 2.21699 -3.52722
490 1 5.38826 1.77619 2.10095 -3.48263
491 1 5.25731 0.027996 4.20611 -3.53952
492 1 3.56319 1.83677 4.1213 -3.50201
493 1 7.05814 -0.0945486 2.36035 -3.46619
494 1 8.67603 1.64178 2.16339 -3.46148
495 1 8.55219 -0.119362 4.44283 -3.36592
496 1 7.0438 1.77384 4.17182 -3.5113
497 1 10.5229 -0.0786526 2.13866 -3.50512
498 1 12.4253 1.64259 2.22982 -3.48203
499 1 12.43 0.0793506 4.34723 -3.47484
500 1 10.4159 1.5454 4.32869 -3.4955
501 1 14.3175 0.02539 2.30179 -3.47965
502 1 16.0674 1.76521 2.30338 -3.11402
503 1 16.0757 -0.207228 4.15521 -3.14271
504 1 14.3491 1.76893 4.26237 -3.49175
505 1 17.4834 -0.289632 2.1546 -2.34355
506 1 -15.9248 5.1219 2.36182 -3.00902
507 1 -16.0137 3.80348 4.40537 -2.98773
508 1 -14.0574 3.59902 2.29887 -3.45206
509 1 -12.3926 5.47089 2.18905 -3.43585
510 1 -12.5666 3.48889 4.29579 -3.49413
511 1 -14.0829 5.42255 4.28612 -3.44321
512 1 -10.8103 3.66062 2.18886 -3.49746
513 1 -8.90324 5.26055 2.17843 -3.44032
514 1 -8.89309 3.60119 4.18853 -3.4792
515 1 -10.6995 5.27984 4.21058 -3.50749
516 1 -7.33426 3.60868 2.16383 -3.39819
517 1 -5.29363 5.10145 2.31606 -3.47999
518 1 -5.2127 3.56905 4.26297 -3.49011
519 1 -7.05172 5.20977 4.2258 -3.49269
520 1 -3.48836 3.68656 2.29135 -3.44265
521 1 -1.7548 5.44876 2.30773 -3.40437
522 1 -1.92209 3.57154 4.34056 -3.47976
523 1 -3.58897 5.43458 4.30374 -3.4901
524 1 0.0386632 3.64782 2.20022 -3.46949
525 1 1.92596 5.27293 2.12836 -3.51466
526 1 1.9521 3.69124 4.02549 -3.46367
527 1 0.0941305 5.24763 4.29436 -3.49652
528 1 3.58065 3.43883 2.22017 -3.45536
529 1 5.16957 5.28796 2.17 -3.5026
530 1 5.35232 3.57837 4.18731 -3.51464
531 1 3.66997 5.34649 4.17213 -3.4599
532 1 7.05106 3.52397 2.13969 -3.50482
533 1 8.76103 5.4127 2.09961 -3.46546
534 1 8.79827 3.52406 3.96073 -3.51556
535 1 7.15057 5.41065 4.1571 -3.50575
536 1 10.5514 3.28987 2.11366 -3.46975
537 1 12.3885 5.0136 2.35641 -3.48985
538 1 12.2894 3.31705 4.2814 -3.47494
539 1 10.6319 5.25221 4.06102 -3.50014
540 1 14.2045 3.25076 2.25539 -3.41469
541 1 15.7935 5.11718 2.01113 -2.99106
542 1 16.0633 3.55548 4.12335 -2.97986
543 1 14.0551 5.17678 4.17655 -3.44631
544 1 -15.9419 6.98628 4.11389 -2.68234
545 1 -14.1012 7.11648 2.17982 -3.31121
546 1 -12.3409 8.72008 2.31423 -3.43081
547 1 -12.3212 7.00422 4.31094 -3.43619
548 1 -14.1723 8.74353 4.22384 -3.12038
549 1 -10.5614 6.9902 2.11186 -3.45119
550 1 -8.855 8.75409 2.23845 -3.49832
551 1 -8.79915 7.10327 4.10602 -3.52973
552 1 -10.5585 8.79488 4.21753 -3.51239
553 1 -6.99736 7.084 2.2025 -3.50263
554 1 -5.079 8.81191 2.28433 -3.50547
555 1 -5.37872 7.03848 4.10626 -3.48775
556 1 -7.00457 8.93694 4.04544 -3.49973
557 1 -3.56093 6.93863 2.21669 -3.44853
558 1 -1.75418 8.75041 2.25839 -3.51098
559 1 -1.60986 7.03103 4.27866 -3.49914
560 1 -3.3858 8.9312 4.15218 -3.47996
561 1 -0.0348984 6.98248 2.12127 -3.44872
562 1 1.703 8.70803 2.16922 -3.48079
563 1 1.87531 7.03658 4.1672 -3.5294
564 1 0.0479755 8.85126 4.17332 -3.49143
565 1 3.64129 7.15564 2.3231 -3.49253
566 1 5.35891 8.93394 2.261 -3.48783
567 1 5.40211 7.1197 4.24758 -3.51597
568 1 3.59962 8.89947 4.2891 -3.51964
569 1 7.04866 7.07954 2.24875 -3.51041
570 1 8.92044 8.8858 2.05798 -3.48394
571 1 9.02579 7.11061 4.18597 -3.47008
572 1 7.33217 8.95885 3.98649 -3.49814
573 1 10.5921 7.12906 2.18488 -3.46763
574 1 12.2665 8.76002 2.07731 -3.37321
575 1 12.3714 7.06827 4.13066 -3.4599
576 1 10.6766 8.81422 4.16288 -3.47299
577 1 14.2375 7.00601 2.01147 -3.30208
578 1 15.6969 6.86946 3.99292 -2.73415
579 1 13.9882 8.73062 4.14101 -3.09156
580 1 -13.9654 10.4634 2.08112 -2.70566
581 1 -12.2608 12.3004 2.27915 -2.84878
582 1 -12.4188 10.6201 4.20641 -3.34204
583 1 -10.6168 10.442 2.30345 -3.47874
584 1 -8.84312 12.2348 2.33256 -3.39244
585 1 -8.80853 10.5913 4.13759 -3.481
586 1 -10.4577 12.4201 4.20289 -3.31378
587 1 -7.04737 10.6907 2.09588 -3.49379
588 1 -5.23436 12.3207 2.23649 -3.4756
589 1 -5.26419 10.6937 4.14818 -3.49746
590 1 -7.01003 12.3541 4.11114 -3.49902
591 1 -3.32942 10.7633 2.26598 -3.48331
592 1 -1.46195 12.4586 2.23016 -3.4451
593 1 -1.65784 10.5589 4.09308 -3.44552
594 1 -3.37275 12.243 4.22022 -3.45066
595 1 -0.0153064 10.4767 2.14101 -3.46474
596 1 1.77389 12.2948 2.27981 -3.5059
597 1 1.70482 10.6799 4.23131 -3.47807
598 1 0.144746 12.5036 4.33979 -3.47763
599 1 3.52642 10.4763 2.31491 -3.49052
600 1 5.20639 12.3078 2.2278 -3.44735
601 1 5.45929 10.5458 4.18368 -3.50209
602 1 3.56479 12.3242 4.07592 -3.489
603 1 7.1423 10.7217 2.08036 -3.51269
604 1 8.97121 12.3258 2.16297 -3.47116
605 1 9.00693 10.5944 4.0606 -3.44763
606 1 7.28877 12.2883 4.14666 -3.51523
607 1 10.675 10.4711 2.29881 -3.40065
608 1 12.3246 12.2393 2.24682 -2.85799
609 1 12.4255 10.6013 4.14953 -3.33443
610 1 10.7127 12.5056 4.10211 -3.30661
611 1 14.1128 10.2494 2.15928 -2.72447
612 1 -10.4393 14.1373 2.03382 -2.64356
613 1 -8.52865 14.2995 4.17309 -3.03568
614 1 -7.13646 13.9791 2.02369 -3.3182
615 1 -5.02105 15.5027 2.37604 -3.00596
616 1 -5.05964 13.9596 4.2296 -3.43639
617 1 -6.6217 15.8339 4.15931 -2.69529
618 1 -3.392 13.7915 2.15253 -3.39211
619 1 -1.7676 15.7694 2.30344 -3.16993
620 1 -1.71139 14.1782 4.26705 -3.46858
621 1 -3.47074 15.9688 4.2291 -2.97697
622 1 0.208597 14.1979 2.39707 -3.46805
623 1 2.00249 15.9706 2.18274 -3.08532
624 1 1.87122 14.3501 4.3312 -3.45136
625 1 -0.0836862 15.9295 4.40183 -3.19931
626 1 3.60727 13.9635 2.22254 -3.3946
627 1 5.15737 15.854 2.3163 -3.01324
628 1 5.4329 14.058 4.10335 -3.43401
629 1 3.72084 15.9659 4.3822 -2.96337
630 1 6.9925 14.1402 2.23281 -3.38776
631 1 8.92531 14.3343 4.05299 -3.05516
632 1 7.01261 15.8266 4.16476 -2.69465
633 1 10.5913 14.1374 2.10608 -2.66782
634 1 0.0725568 17.3898 2.38094 -2.36912
635 1 -5.14334 -15.4275 5.90382 -3.06091
636 1 -6.69449 -15.6435 7.79237 -2.73084
637 1 -1.70749 -15.844 6.11417 -3.151
638 1 -3.26252 -15.7663 8.07843 -3.02209
639 1 0.0730637 -17.5158 5.94014 -2.31999
640 1 1.61931 -15.6735 6.42934 -3.02515
641 1 -0.0160178 -15.9956 8.04229 -3.13573
642 1 5.10166 -15.7742 6.02388 -3.00753
643 1 3.46786 -15.8773 7.9963 -3.0285
644 1 6.81409 -15.9167 7.96056 -2.743
645 1 -12.4759 -12.2341 6.15211 -2.84811
646 1 -10.6865 -14.0423 6.1292 -2.69284
647 1 -8.8757 -12.3393 6.05986 -3.42917
648 1 -8.78497 -14.1138 7.86483 -3.10142
649 1 -10.509 -12.3478 8.07987 -3.30153
650 1 -7.25854 -14.0492 5.94096 -3.26115
651 1 -5.23111 -12.5287 6.12279 -3.54158
652 1 -4.98071 -14.1239 7.99733 -3.3182
653 1 -6.9594 -12.4506 7.86736 -3.51574
654 1 -3.19344 -13.9431 6.13939 -3.3744
655 1 -1.55521 -12.2929 6.13174 -3.43862
656 1 -1.46632 -14.0931 7.97244 -3.46377
657 1 -3.32411 -12.3291 8.05961 -3.50963
658 1 0.037194 -13.9699 6.07911 -3.42143
659 1 1.794 -12.214 6.1126 -3.53008
660 1 1.70669 -14.081 8.08226 -3.44645
661 1 0.108039 -12.1839 8.09935 -3.51429
662 1 3.41364 -14.0786 6.19305 -3.4573
663 1 5.31208 -12.2874 5.9435 -3.49147
664 1 5.29263 -13.998 7.93675 -3.43127
665 1 3.47896 -12.2993 8.05777 -3.48073
666 1 6.96272 -14.199 6.14099 -3.32509
667 1 8.52058 -12.2463 6.04887 -3.39576
668 1 8.66932 -14.2267 8.00152 -3.12831
669 1 6.99128 -12.3881 7.87421 -3.40771
670 1 10.2007 -13.9536 6.02886 -2.77726
671 1 12.0076 -12.2414 5.99656 -2.86071
672 1 10.3393 -12.4092 8.03015 -3.34786
673 1 -14.1849 -10.3898 5.97938 -2.71687
674 1 -12.4048 -8.81682 6.09021 -3.41157
675 1 -12.3116 -10.5817 8.02159 -3.30175
676 1 -13.9732 -8.90683 7.93334 -3.04817
677 1 -10.678 -10.5568 5.97983 -3.50583
678 1 -8.73437 -8.76293 5.88123 -3.45208
679 1 -8.70277 -10.6517 7.88079 -3.49553
680 1 -10.5063 -8.89693 7.99876 -3.51411
681 1 -7.07387 -10.5564 5.97075 -3.5095
682 1 -5.21762 -8.72975 5.94182 -3.50163
683 1 -5.29288 -10.4612 7.96936 -3.53574
684 1 -7.08167 -8.74112 7.9065 -3.50326
685 1 -3.56462 -10.6032 6.02373 -3.48201
686 1 -1.84837 -8.81541 6.02566 -3.48975
687 1 -1.65059 -10.4797 7.96413 -3.51352
688 1 -3.44653 -8.62692 8.10439 -3.47039
689 1 0.126073 -10.389 6.05719 -3.53718
690 1 1.88776 -8.72605 6.28223 -3.46328
691 1 1.93578 -10.4893 8.05036 -3.49591
692 1 0.0545529 -8.74778 8.00748 -3.49289
693 1 3.63994 -10.5851 6.00406 -3.48827
694 1 5.42031 -8.55176 6.12232 -3.54646
695 1 5.34435 -10.6721 7.8555 -3.46111
696 1 3.67002 -8.65195 8.04637 -3.52625
697 1 6.94278 -10.5644 6.02574 -3.39247
698 1 8.54378 -8.77022 6.07425 -3.5123
699 1 8.67901 -10.5336 7.9371 -3.49379
700 1 6.90093 -8.87589 8.24847 -3.42924
701 1 10.3415 -10.5615 5.98319 -3.48534
702 1 12.1909 -8.72903 6.01639 -3.43837
703 1 12.3216 -10.7223 8.06551 -3.29173
704 1 10.411 -8.78706 8.02548 -3.49979
705 1 13.8403 -10.4895 6.04183 -2.75346
706 1 14.0744 -8.87058 8.00083 -3.0802
707 1 -15.9897 -5.21627 6.3042 -2.92425
708 1 -15.7716 -7.13691 8.03914 -2.72178
709 1 -14.1847 -7.17334 6.17497 -3.30968
710 1 -12.308 -5.31735 6.03497 -3.45827
711 1 -12.3837 -7.09166 8.06064 -3.51101
712 1 -14.1493 -5.28892 8.06641 -3.44498
713 1 -10.5358 -7.07876 6.02309 -3.51997
714 1 -8.76963 -5.23175 6.13168 -3.53788
715 1 -8.9259 -7.00531 8.0626 -3.4519
716 1 -10.5856 -5.31489 8.03115 -3.47117
717 1 -7.05998 -7.09204 5.9719 -3.47291
718 1 -5.32178 -5.14523 6.03344 -3.5104
719 1 -5.35678 -6.9616 7.96261 -3.53509
720 1 -7.13574 -5.20459 8.05239 -3.49796
721 1 -3.42741 -6.93708 6.14029 -3.4908
722 1 -1.66615 -5.29883 6.10733 -3.49095
723 1 -1.7244 -7.06653 7.92797 -3.44246
724 1 -3.45552 -5.24135 8.11123 -3.48115
725 1 0.0702163 -7.23125 6.11708 -3.45919
726 1 1.7226 -5.50832 6.08117 -3.43392
727 1 1.89889 -7.00223 8.15682 -3.48293
728 1 -0.090408 -5.28197 7.99318 -3.50655
729 1 3.52096 -6.90942 6.07391 -3.43849
730 1 5.31594 -5.13765 6.03449 -3.51147
731 1 5.41516 -6.92029 8.06661 -3.48922
732 1 3.54291 -5.20944 8.03423 -3.50004
733 1 7.09182 -6.75307 6.05013 -3.44665
734 1 8.82979 -5.15384 6.29035 -3.45756
735 1 8.76044 -6.98775 8.07585 -3.51472
736 1 6.97889 -5.13335 8.12556 -3.4519
737 1 10.4705 -7.00002 6.11399 -3.49611
738 1 12.3537 -5.32518 6.11925 -3.53758
739 1 12.4061 -7.16247 8.15447 -3.4379
740 1 10.5666 -5.23391 7.99274 -3.50545
741 1 14.0929 -7.21674 6.04711 -3.32692
742 1 15.5693 -5.29594 6.26459 -3.03133