ITEM: TIMESTEP
96000
ITEM: NUMBER OF ATOMS
3804
ITEM: BOX BOUNDS ss ss pp
-1.7990469567956247e+01 1.8167272003497239e+01
-1.7393201870316226e+01 1.7126760073926580e+01
-2.0822400000000001e+00 4.5462240000000001e+01
ITEM: ATOMS id type x y z c_peratom
1 1 -6.05202 -14.7639 45.3717 -2.98238
2 1 -7.76064 -14.5688 -0.125711 -2.74333
3 1 -2.56911 -14.8457 45.4321 -3.09709
4 1 -4.29438 -15.0038 -0.282373 -2.99275
5 1 -0.769648 -16.3858 44.8858 -2.54864
6 1 1.68735 -15.4575 44.9655 -2.90691
7 1 -0.538509 -15.2693 -0.594731 -3.06896
8 1 5.95921 -14.8708 -1.77393 -2.98487
9 1 4.16868 -14.8242 0.0404073 -3.01139
10 1 7.7678 -14.8798 -0.0980944 -2.68333
11 1 -13.0517 -11.4861 -2.02057 -2.80071
12 1 -11.214 -13.1494 -1.99297 -2.68861
13 1 -9.59482 -11.3055 -2.05432 -3.48166
14 1 -9.55603 -13.0517 -0.189699 -3.07948
15 1 -11.3675 -11.3023 -0.132434 -3.34795
16 1 -7.89419 -13.1389 45.394 -3.35387
17 1 -6.02332 -11.2684 45.4193 -3.51113
18 1 -5.91286 -12.9061 -0.129667 -3.44326
19 1 -7.8109 -11.3727 -0.143569 -3.44017
20 1 -4.20085 -13.0149 -1.9986 -3.44807
21 1 -1.83674 -12.3759 44.9834 -3.52913
22 1 -2.28995 -13.4818 -0.134865 -3.43366
23 1 -3.96237 -11.4646 -0.152851 -3.44453
24 1 -0.00989482 -13.9597 44.9653 -3.33798
25 1 1.76915 -12.2718 45.2018 -3.4832
26 1 1.72668 -14.273 -0.475967 -3.35176
27 1 -0.00512644 -12.4407 -0.593418 -3.47512
28 1 3.58097 -13.9782 45.1942 -3.34394
29 1 5.45404 -12.4052 45.2969 -3.48239
30 1 5.89349 -13.1349 0.0662366 -3.42408
31 1 3.51916 -12.4097 -0.42135 -3.52956
32 1 7.72772 -12.9832 -1.67119 -3.34054
33 1 9.44994 -11.355 -1.95832 -3.41881
34 1 9.53351 -13.2056 0.148695 -3.08768
35 1 7.7467 -11.3699 0.243299 -3.54695
36 1 11.1273 -13.1572 -1.74989 -2.72168
37 1 12.9495 -11.3331 -1.82169 -2.85768
38 1 11.2029 -11.3346 -0.056135 -3.32334
39 1 -14.8491 -9.65851 -2.03172 -2.70119
40 1 -13.3714 -7.58381 -1.98539 -3.4608
41 1 -13.2583 -9.66102 0.00459863 -3.26658
42 1 -15.2383 -8.1082 -0.0183687 -2.99447
43 1 -11.6135 -9.56633 -1.77953 -3.44499
44 1 -9.60451 -8.05234 -1.78844 -3.41946
45 1 -9.50107 -9.63264 -0.022918 -3.4595
46 1 -11.352 -7.9916 0.0483123 -3.46764
47 1 -7.73313 -9.55681 -2.05526 -3.44569
48 1 -5.26781 -8.74476 45.1096 -3.52991
49 1 -5.81172 -9.69566 -0.170902 -3.51653
50 1 -7.66944 -8.06237 -0.166099 -3.42121
51 1 -3.59566 -10.5582 45.0771 -3.51743
52 1 -1.74244 -8.77765 45.1423 -3.49551
53 1 -1.60545 -10.7211 -0.597 -3.48305
54 1 -3.39749 -8.94015 -0.458151 -3.49345
55 1 0.0681492 -10.4868 45.0899 -3.52172
56 1 1.95749 -8.68645 45.2572 -3.5067
57 1 1.69973 -10.5528 -0.469722 -3.49087
58 1 0.106434 -8.85951 -0.439497 -3.48251
59 1 3.57789 -10.6487 45.1998 -3.50004
60 1 5.30534 -8.7625 45.3845 -3.52915
61 1 5.40622 -10.6419 -0.41096 -3.5175
62 1 3.58878 -8.74577 -0.357033 -3.51524
63 1 7.17467 -10.5657 45.2282 -3.50583
64 1 8.94581 -8.86855 45.235 -3.49522
65 1 9.57277 -9.54839 0.032277 -3.50991
66 1 7.12073 -8.88377 -0.35369 -3.50293
67 1 11.295 -9.46636 -1.80456 -3.49878
68 1 13.0033 -7.64008 -1.64373 -3.46857
69 1 12.9649 -9.68281 0.0660043 -3.31608
70 1 11.2371 -7.66584 0.0897357 -3.48438
71 1 14.625 -9.60957 -1.77431 -2.74128
72 1 14.8699 -7.87569 0.144101 -3.12474
73 1 -16.9108 -4.3499 -1.8744 -3.00519
74 1 -16.8893 -5.98207 0.154831 -2.73536
75 1 -15.3954 -6.21146 -1.86033 -3.30073
76 1 -13.2394 -4.81951 -1.91446 -3.49851
77 1 -13.2375 -6.25391 0.168891 -3.42836
78 1 -15.0969 -4.5435 0.108543 -3.36483
79 1 -11.3286 -6.37065 -1.7116 -3.39491
80 1 -9.12413 -5.42903 45.3869 -3.50163
81 1 -9.40886 -6.43129 0.124994 -3.43205
82 1 -11.1684 -4.81411 0.0829574 -3.43817
83 1 -7.38477 -7.11401 45.1114 -3.47229
84 1 -5.52988 -5.58009 45.2888 -3.49793
85 1 -5.2777 -7.25738 -0.407811 -3.47827
86 1 -7.09296 -5.58574 -0.250161 -3.49229
87 1 -3.48089 -7.07842 45.2949 -3.46992
88 1 -1.72982 -5.42533 45.4144 -3.48517
89 1 -1.66935 -7.1553 -0.421891 -3.46523
90 1 -3.69216 -5.42384 -0.227928 -3.46032
91 1 0.159575 -7.14541 45.192 -3.49547
92 1 1.80085 -5.23487 45.3091 -3.40095
93 1 1.81455 -6.91739 -0.415548 -3.49831
94 1 0.0112754 -5.39954 -0.234892 -3.45163
95 1 3.66843 -6.89979 45.3913 -3.49879
96 1 5.45028 -5.2734 45.2472 -3.44438
97 1 5.4802 -7.06389 -0.300933 -3.51962
98 1 3.64825 -5.32863 -0.181751 -3.46092
99 1 7.25796 -7.10587 45.2301 -3.51286
100 1 9.1283 -5.39017 45.2103 -3.4731
101 1 8.84517 -7.11439 -0.336778 -3.47314
102 1 7.28227 -5.37243 -0.318114 -3.47217
103 1 10.7491 -7.09843 45.2167 -3.46311
104 1 12.6023 -5.30679 45.3006 -3.45165
105 1 13.1912 -5.99275 0.33619 -3.50076
106 1 10.8762 -5.36134 -0.238757 -3.46632
107 1 14.8908 -5.9679 -1.60388 -3.38227
108 1 16.7785 -4.23288 -1.52155 -2.93536
109 1 16.5774 -5.92461 0.314488 -2.71171
110 1 14.8918 -4.24097 0.379427 -3.41624
111 1 -16.777 -1.57017 -1.82706 -3.02466
112 1 -16.8695 -3.06605 0.115709 -2.97716
113 1 -14.8612 -3.07264 -1.95795 -3.41879
114 1 -12.7123 -1.93821 -2.14127 -3.49022
115 1 -12.9361 -3.24233 0.141844 -3.49423
116 1 -14.8117 -1.67581 0.266947 -3.47783
117 1 -10.9842 -3.75795 -2.20177 -3.50994
118 1 -9.06219 -1.97849 -1.94559 -3.46029
119 1 -8.76583 -3.84885 -0.268901 -3.47355
120 1 -10.7323 -1.99818 -0.0463117 -3.52957
121 1 -7.2146 -3.75776 45.0218 -3.4469
122 1 -5.47413 -2.05275 45.2645 -3.47545
123 1 -5.39153 -3.77993 -0.371373 -3.4425
124 1 -7.08408 -2.09923 -0.376345 -3.4368
125 1 -3.64356 -3.66863 45.3919 -3.51089
126 1 -1.75051 -1.93097 45.3991 -3.52795
127 1 -1.93532 -3.60443 -0.195934 -3.49989
128 1 -3.72858 -1.86057 -0.243012 -3.49035
129 1 0.102786 -3.71785 45.3253 -3.419
130 1 1.79671 -1.94611 45.3542 -3.51626
131 1 1.81714 -3.75329 -0.199855 -3.49629
132 1 -0.00356394 -1.86637 -0.205334 -3.49317
133 1 3.61257 -3.71415 45.4637 -3.46226
134 1 5.41219 -1.88731 -1.99372 -3.47883
135 1 5.35943 -3.59631 -0.269022 -3.48084
136 1 3.60999 -1.85385 -0.0855009 -3.51621
137 1 7.09381 -3.5946 45.4113 -3.44551
138 1 8.94909 -1.82182 -2.09765 -3.44908
139 1 9.16346 -3.58661 -0.253024 -3.49626
140 1 7.28575 -1.90018 -0.199088 -3.50524
141 1 10.8794 -3.65572 45.4152 -3.46145
142 1 12.6107 -1.60457 45.5639 -3.52189
143 1 12.5871 -3.58673 -0.228544 -3.4956
144 1 10.9034 -1.71704 0.0303717 -3.41149
145 1 14.2505 -3.57316 45.3969 -3.50045
146 1 16.0828 -1.94681 -1.90915 -3.19786
147 1 16.8539 -2.35065 0.481942 -2.96041
148 1 14.4138 -1.90202 -0.155284 -3.46992
149 1 -17.7959 0.40648 44.9545 -2.41848
150 1 -15.8538 1.69869 45.3945 -3.15484
151 1 -16.5837 0.119532 -0.193238 -3.18427
152 1 -14.5776 -0.389933 -1.98999 -3.53489
153 1 -12.6271 1.29422 -2.08524 -3.44732
154 1 -12.7123 -0.378997 -0.092586 -3.48251
155 1 -14.4151 1.41488 -0.0504121 -3.51672
156 1 -10.7535 -0.287625 -2.01219 -3.47646
157 1 -9.12582 1.50947 -1.99532 -3.45711
158 1 -8.85566 -0.300387 -0.0003793 -3.4156
159 1 -10.6744 1.17103 0.119093 -3.45763
160 1 -7.33253 -0.31781 45.464 -3.50963
161 1 -5.48657 1.49896 -1.99139 -3.44908
162 1 -5.47357 -0.230406 -0.14922 -3.48273
163 1 -7.26145 1.50718 -0.137983 -3.47035
164 1 -3.5532 -0.184217 -2.14954 -3.48191
165 1 -1.85457 1.48729 45.3969 -3.45559
166 1 -1.8091 -0.204556 -0.239076 -3.52928
167 1 -3.6513 1.61954 -0.0664405 -3.45634
168 1 0.0614172 -0.0990555 45.3998 -3.53702
169 1 1.88588 1.59537 45.3947 -3.36741
170 1 1.76911 -0.160347 -0.185502 -3.45403
171 1 0.0819171 1.56354 -0.0436157 -3.47315
172 1 3.6834 -0.0653107 45.3554 -3.46836
173 1 5.39334 1.63542 -2.09139 -3.41153
174 1 5.54985 -0.151312 0.0221213 -3.44152
175 1 3.55339 1.43384 -0.236939 -3.49165
176 1 7.27019 -0.143544 -2.15436 -3.50343
177 1 8.93025 1.65276 -2.14321 -3.4614
178 1 9.0631 -0.183005 -0.121257 -3.4532
179 1 7.25851 1.53665 -0.0867791 -3.51025
180 1 10.589 -0.0531702 45.266 -3.41503
181 1 12.3952 1.54011 45.443 -3.48983
182 1 12.5579 0.034723 -0.0587347 -3.47079
183 1 10.4668 1.72162 -0.160375 -3.45534
184 1 14.5143 -0.0178792 -2.11013 -3.46488
185 1 15.9847 1.92954 -1.96431 -3.21797
186 1 16.0531 -0.00273214 -0.114568 -3.29129
187 1 14.363 1.78963 -0.202602 -3.46761
188 1 17.6985 -0.0827029 -2.15495 -2.54454
189 1 -15.5925 5.22512 -2.04708 -3.01997
190 1 -15.9634 3.46081 -0.3033 -3.01414
191 1 -13.998 3.24943 -1.98376 -3.45073
192 1 -12.3641 5.17674 -2.0185 -3.49916
193 1 -12.3421 2.93912 -0.104799 -3.47547
194 1 -13.8851 4.89075 0.0743831 -3.40013
195 1 -10.9571 2.98049 45.4794 -3.42929
196 1 -9.19272 4.79569 -2.0563 -3.50062
197 1 -9.06306 3.12841 0.0308026 -3.5048
198 1 -10.7525 4.92843 -0.0748878 -3.42413
199 1 -7.34516 3.05944 -2.20053 -3.4422
200 1 -5.58364 4.90091 45.4317 -3.4949
201 1 -5.4612 3.1592 -0.0799323 -3.45684
202 1 -7.32292 4.86451 -0.174735 -3.50808
203 1 -3.71898 3.02722 -2.0572 -3.44683
204 1 -1.82787 4.81832 -1.91323 -3.47505
205 1 -1.84087 3.1256 -0.167876 -3.44574
206 1 -3.66875 4.75613 -0.00860827 -3.48122
207 1 0.125107 3.00195 45.4163 -3.44954
208 1 1.88849 4.74036 -2.12539 -3.48023
209 1 1.78776 3.20454 0.0982938 -3.42513
210 1 0.0310777 4.80235 -0.0777708 -3.50778
211 1 3.59713 3.14976 -2.03447 -3.39587
212 1 5.33532 5.01683 -1.81105 -3.44102
213 1 5.32985 3.21579 0.0344162 -3.50964
214 1 3.52462 4.80893 -0.0371238 -3.42608
215 1 7.04693 3.29293 -2.05087 -3.46133
216 1 8.95635 4.97154 -1.96487 -3.48673
217 1 8.8668 3.49377 -0.0652281 -3.4441
218 1 7.0765 5.05362 0.0739042 -3.5072
219 1 10.7247 3.26684 -2.06614 -3.45243
220 1 12.3384 5.17108 -2.03523 -3.49019
221 1 12.4177 3.29318 -0.242046 -3.50239
222 1 10.7376 5.17764 -0.0566228 -3.4298
223 1 14.0236 3.4027 45.44 -3.39531
224 1 15.919 4.77521 45.4079 -2.99897
225 1 16.0512 3.558 -0.110751 -3.11268
226 1 14.1077 5.17582 0.0201099 -3.44943
227 1 -15.5847 6.70604 -0.0657643 -2.76851
228 1 -14.2113 7.20906 -2.12336 -3.12232
229 1 -12.2667 8.47589 -1.79887 -3.36326
230 1 -12.2209 6.70019 0.0543717 -3.40757
231 1 -13.9867 8.72382 0.192201 -3.09629
232 1 -10.5568 6.71934 45.3853 -3.42577
233 1 -8.85843 8.43131 45.4179 -3.46897
234 1 -8.94007 6.72659 -0.13297 -3.50099
235 1 -10.5184 8.47511 0.00404597 -3.45825
236 1 -7.34563 6.62322 45.3246 -3.49188
237 1 -5.3611 8.11754 45.3628 -3.38392
238 1 -5.41463 6.42126 -0.00974748 -3.42546
239 1 -6.92539 8.14912 -0.193407 -3.45044
240 1 -3.72211 6.3698 45.4711 -3.43446
241 1 -1.85929 8.05988 -2.00055 -3.51893
242 1 -1.84804 6.4896 0.0892358 -3.49259
243 1 -3.62668 8.22798 -0.0406745 -3.50618
244 1 -0.0213539 6.37624 45.4844 -3.45721
245 1 1.58934 8.3316 -2.16159 -3.48627
246 1 1.71812 6.71128 -0.0482624 -3.4993
247 1 -0.161671 8.24012 -0.193423 -3.46996
248 1 3.58121 6.70672 -2.16297 -3.47967
249 1 5.32129 8.38497 -1.96083 -3.45877
250 1 5.07957 6.63954 0.00921536 -3.46959
251 1 3.43522 8.50259 -0.0481205 -3.48148
252 1 6.98912 6.70135 45.6139 -3.4234
253 1 8.69364 8.41081 -2.01722 -3.47972
254 1 8.99466 6.70432 -0.0912498 -3.47525
255 1 6.9611 8.26148 -0.0998764 -3.47296
256 1 10.6261 6.81403 -2.13133 -3.48168
257 1 12.5038 8.33634 -2.03043 -3.40083
258 1 12.3438 6.84704 -0.0246502 -3.42196
259 1 10.6768 8.57155 -0.0711027 -3.44835
260 1 14.2664 6.68664 -1.87288 -3.33698
261 1 16.1299 6.5973 0.102812 -2.68157
262 1 14.385 8.41912 -0.114486 -3.099
263 1 -13.7278 10.2885 -1.91096 -2.78945
264 1 -12.0783 12.2333 -2.09426 -2.79808
265 1 -12.2519 10.5653 -0.0332753 -3.28305
266 1 -10.6879 10.2832 -1.96515 -3.48321
267 1 -8.5503 11.8336 -2.07953 -3.38396
268 1 -8.6851 10.0319 -0.0781138 -3.50673
269 1 -10.1721 12.0188 -0.0678725 -3.3582
270 1 -6.8164 9.8657 -2.07799 -3.43479
271 1 -5.26832 11.9035 45.513 -3.53269
272 1 -5.23925 9.99272 -0.0777842 -3.46913
273 1 -6.9503 11.9433 -0.124971 -3.48658
274 1 -3.62439 9.8976 -2.02506 -3.54307
275 1 -1.87185 11.863 45.5768 -3.45135
276 1 -1.83208 10.0771 -0.0843915 -3.4631
277 1 -3.44191 11.7885 -0.203529 -3.42772
278 1 -0.189201 10.0388 45.3608 -3.48581
279 1 1.36414 11.9317 45.3513 -3.46544
280 1 1.55743 9.94386 -0.151512 -3.46219
281 1 -0.125597 11.8008 -0.115897 -3.49687
282 1 3.38812 10.2468 -2.03159 -3.50077
283 1 5.23751 11.8202 45.42 -3.42112
284 1 5.39482 10.1027 0.0349692 -3.47035
285 1 3.34289 11.6727 -0.0176045 -3.43385
286 1 6.93358 10.1215 -1.96457 -3.46527
287 1 8.9408 11.7975 -1.8014 -3.41292
288 1 8.76797 10.2518 0.12484 -3.4523
289 1 6.97839 12.0735 -0.143399 -3.48922
290 1 10.6896 10.0491 -2.01945 -3.48746
291 1 12.3491 11.7972 -2.19498 -2.81758
292 1 12.347 10.1907 -0.0183227 -3.28081
293 1 10.5445 11.8668 0.110092 -3.28964
294 1 13.986 10.1208 -1.75764 -2.71079
295 1 -10.0142 13.5833 -2.1564 -2.79031
296 1 -8.52267 13.7775 -0.0736814 -3.04307
297 1 -7.13338 13.7124 45.5084 -3.34454
298 1 -5.23596 15.3991 -1.93089 -2.99705
299 1 -5.10421 13.6082 -0.133275 -3.37992
300 1 -6.64258 15.361 0.121885 -2.73649
301 1 -3.58627 13.6677 45.4485 -3.43462
302 1 -1.97192 15.7664 45.3068 -3.00427
303 1 -1.81659 13.9365 -0.0961023 -3.42607
304 1 -3.58786 15.4643 -0.0860328 -2.98451
305 1 -0.204307 13.6905 45.3211 -3.42347
306 1 1.69114 15.157 45.3672 -3.1236
307 1 1.81409 13.5943 -0.176547 -3.44197
308 1 0.165565 15.411 -0.0489833 -3.1451
309 1 3.4826 13.4296 45.3355 -3.44549
310 1 5.08742 15.2579 -1.89782 -2.95828
311 1 4.93354 13.4186 -0.0200584 -3.45874
312 1 3.32859 15.4545 -0.167963 -2.98076
313 1 7.00244 13.6411 -1.92561 -3.29315
314 1 8.82423 13.7052 0.161434 -3.07608
315 1 6.79615 15.1623 -0.0508242 -2.74072
316 1 10.5773 13.4426 -1.84579 -2.67483
317 1 0.0988764 16.8627 45.391 -2.36904
318 1 -6.07032 -14.7397 1.61254 -2.96606
319 1 -7.53125 -14.6538 3.67781 -2.71208
320 1 -2.31786 -15.2683 1.61958 -2.92016
321 1 -4.17701 -14.9807 3.64761 -2.90114
322 1 0.275077 -16.0341 1.47293 -2.55162
323 1 2.41083 -14.6613 1.86282 -3.10803
324 1 0.422346 -14.8627 3.68709 -3.12153
325 1 6.02693 -14.7033 1.86179 -2.97675
326 1 4.30538 -14.7636 3.87227 -3.01427
327 1 7.60123 -14.9577 3.80248 -2.70888
328 1 -13.0885 -11.3999 1.85815 -2.8423
329 1 -11.1401 -12.9851 1.85178 -2.72617
330 1 -9.59785 -11.2388 1.8953 -3.42336
331 1 -9.53372 -12.9241 3.78905 -3.12936
332 1 -11.6043 -11.4376 3.77005 -3.24786
333 1 -7.67906 -12.8473 1.70467 -3.37012
334 1 -5.59471 -11.4268 1.77735 -3.43916
335 1 -5.68536 -13.0672 3.75228 -3.41789
336 1 -7.66703 -11.3716 3.94819 -3.50789
337 1 -3.9703 -13.377 1.68125 -3.45411
338 1 -1.69586 -11.8935 1.58231 -3.40325
339 1 -1.8197 -13.7057 3.3097 -3.31257
340 1 -3.65936 -11.7184 3.55751 -3.44131
341 1 -0.114719 -13.7337 1.45048 -3.37651
342 1 1.77548 -12.3051 1.4908 -3.41552
343 1 2.14646 -13.1137 3.84903 -3.47037
344 1 -0.137964 -12.0667 3.63543 -3.38959
345 1 4.23284 -13.0775 2.06492 -3.42536
346 1 6.00271 -11.2968 2.0193 -3.48257
347 1 6.06013 -13.0812 3.99841 -3.3859
348 1 4.19044 -11.5283 4.04148 -3.48184
349 1 7.76557 -13.1398 2.1372 -3.25865
350 1 9.62639 -11.3015 2.04627 -3.47378
351 1 9.59398 -13.4435 3.84126 -3.03884
352 1 7.84205 -11.5008 3.71569 -3.39027
353 1 11.3309 -13.0824 1.75489 -2.68915
354 1 12.955 -11.3512 1.90143 -2.88375
355 1 11.3174 -11.4867 3.86084 -3.3052
356 1 -14.606 -9.38528 1.98765 -2.81036
357 1 -13.0226 -7.59215 2.11954 -3.38076
358 1 -13.211 -9.58564 3.88931 -3.26802
359 1 -14.838 -7.69475 3.88953 -3.20535
360 1 -11.502 -9.56191 1.95479 -3.47614
361 1 -9.41033 -8.40711 2.1686 -3.44538
362 1 -9.65519 -9.96663 3.88971 -3.37057
363 1 -11.2055 -8.19221 3.88018 -3.48148
364 1 -7.46087 -9.94202 1.78524 -3.48539
365 1 -5.50944 -8.3511 1.91175 -3.49259
366 1 -5.44666 -10.0768 3.80734 -3.46609
367 1 -7.57897 -8.46712 3.87694 -3.5187
368 1 -3.53964 -9.98236 1.70808 -3.46454
369 1 -1.38428 -8.83979 1.60407 -3.37613
370 1 -1.66442 -10.3051 3.6325 -3.44786
371 1 -3.63034 -8.42554 3.78894 -3.50253
372 1 0.13595 -10.5656 1.69123 -3.33433
373 1 1.85703 -8.84717 1.52087 -3.50011
374 1 1.84995 -10.6474 3.6255 -3.45238
375 1 0.325148 -8.81881 3.60757 -3.43541
376 1 3.57735 -10.7971 1.50887 -3.47256
377 1 5.39225 -9.04753 1.49443 -3.49092
378 1 6.06426 -9.75986 3.99186 -3.53655
379 1 3.63308 -8.99392 3.46833 -3.49465
380 1 7.75358 -9.52896 2.18817 -3.4773
381 1 9.55605 -7.886 2.1328 -3.49896
382 1 9.61283 -9.70067 3.93019 -3.49899
383 1 7.82409 -7.89531 4.33023 -3.47828
384 1 11.3534 -9.50616 1.84092 -3.43561
385 1 13.1094 -7.88836 2.07156 -3.44412
386 1 13.0656 -9.70613 3.87849 -3.36241
387 1 11.4142 -7.86329 3.95261 -3.52142
388 1 14.8463 -9.50916 1.9004 -2.73137
389 1 15.1824 -8.10233 3.83315 -3.00457
390 1 -16.7938 -4.48363 2.17944 -3.02576
391 1 -16.8 -6.22888 3.95009 -2.63684
392 1 -15.0986 -6.22417 1.80625 -3.30655
393 1 -12.9856 -4.89137 2.01526 -3.44133
394 1 -12.8169 -6.29105 4.07908 -3.32556
395 1 -14.8099 -5.09904 3.95465 -3.38672
396 1 -10.9855 -6.38807 2.00572 -3.47927
397 1 -9.13552 -4.88289 1.98029 -3.46454
398 1 -9.0892 -6.5881 4.03352 -3.49438
399 1 -10.9048 -4.97712 4.09383 -3.37241
400 1 -7.56829 -6.74695 1.96072 -3.48885
401 1 -5.37214 -5.64006 1.63876 -3.51608
402 1 -5.53859 -6.80398 3.8437 -3.4528
403 1 -7.1443 -5.02477 3.96215 -3.46236
404 1 -3.38615 -7.28604 1.48695 -3.5065
405 1 -1.73712 -5.3855 1.88932 -3.47368
406 1 -1.53281 -7.15888 3.61073 -3.436
407 1 -3.42302 -5.62462 3.66819 -3.47423
408 1 0.158294 -7.12435 1.65449 -3.43241
409 1 1.81767 -5.3242 1.70397 -3.51008
410 1 1.86376 -7.12792 3.4297 -3.4403
411 1 0.0312074 -5.39146 3.67563 -3.47965
412 1 3.61206 -7.17932 1.53915 -3.49893
413 1 5.42183 -5.48727 1.68624 -3.47945
414 1 5.36501 -7.3446 3.53901 -3.51204
415 1 3.70426 -5.34206 3.70013 -3.47221
416 1 7.15483 -7.1534 1.75247 -3.49796
417 1 8.93166 -5.37231 1.52982 -3.50896
418 1 9.6301 -6.13759 3.97706 -3.47542
419 1 7.14994 -5.38601 3.62362 -3.42136
420 1 11.4592 -5.97498 2.16767 -3.44464
421 1 13.2168 -4.22163 2.13206 -3.46669
422 1 13.438 -6.32154 4.1516 -3.5066
423 1 11.5402 -4.58298 4.05588 -3.46735
424 1 15.1136 -6.34553 2.16563 -3.29579
425 1 16.6748 -4.15509 2.3013 -2.97803
426 1 16.6147 -5.89823 4.11529 -2.76151
427 1 14.8881 -4.13908 4.00757 -3.40525
428 1 -16.6214 -1.58411 2.03592 -3.09338
429 1 -16.6822 -2.90348 4.27971 -3.02279
430 1 -14.7937 -3.13355 2.23502 -3.45764
431 1 -12.9153 -1.43479 2.03414 -3.4491
432 1 -12.9166 -3.46994 3.97244 -3.53058
433 1 -14.749 -1.44811 4.06304 -3.45937
434 1 -11.1182 -3.29794 2.2112 -3.49511
435 1 -8.83481 -2.20943 1.93176 -3.51916
436 1 -9.03953 -3.4509 4.09262 -3.45311
437 1 -10.894 -1.85812 4.10543 -3.46203
438 1 -6.91038 -3.68798 1.63359 -3.38075
439 1 -5.37944 -2.05941 1.80186 -3.39904
440 1 -5.07798 -3.81809 3.8226 -3.47934
441 1 -7.02806 -2.05179 3.86663 -3.46394
442 1 -3.65564 -3.71672 1.78268 -3.49515
443 1 -1.77758 -1.97866 1.78639 -3.44084
444 1 -1.75027 -3.7386 3.84021 -3.5052
445 1 -3.47129 -1.92033 3.63634 -3.44528
446 1 -0.0430165 -3.50047 1.88234 -3.44377
447 1 1.79507 -1.93254 1.72855 -3.48151
448 1 1.9142 -3.63533 3.69742 -3.49012
449 1 0.174915 -1.8182 3.81582 -3.51162
450 1 3.60984 -3.64529 1.78603 -3.5205
451 1 5.45334 -1.83463 1.65705 -3.44484
452 1 5.39889 -3.71277 3.74425 -3.46252
453 1 3.61714 -1.92333 3.78328 -3.50069
454 1 7.15213 -3.74788 1.82469 -3.44896
455 1 8.95084 -2.04014 1.83486 -3.49507
456 1 8.86868 -3.85763 3.71609 -3.42447
457 1 7.17996 -1.95009 3.6599 -3.49846
458 1 10.8888 -3.65514 1.7569 -3.49797
459 1 12.5717 -1.7936 1.82556 -3.51144
460 1 13.0456 -2.61131 4.2746 -3.4529
461 1 10.7888 -2.02301 3.79183 -3.51246
462 1 15.0598 -2.31894 2.27887 -3.4366
463 1 16.7468 -0.469123 2.51673 -2.98138
464 1 16.6347 -2.55003 4.38997 -3.00063
465 1 14.8707 -0.883943 4.26831 -3.46355
466 1 -17.8769 0.377919 1.86509 -2.57485
467 1 -16.0887 2.20343 1.69679 -3.20436
468 1 -16.5789 0.155394 3.99178 -3.19368
469 1 -14.8964 0.062032 2.0057 -3.44598
470 1 -12.5141 1.25327 1.84151 -3.54079
471 1 -12.5802 -0.093511 3.98638 -3.44393
472 1 -14.4137 1.67689 3.78218 -3.49021
473 1 -10.7017 -0.43683 2.00789 -3.51628
474 1 -8.93171 1.3992 1.97662 -3.4751
475 1 -8.80449 -0.453492 3.75788 -3.48847
476 1 -10.5739 1.27177 3.90283 -3.49309
477 1 -7.21476 -0.22036 1.67354 -3.43704
478 1 -5.37022 1.49299 1.97042 -3.50502
479 1 -5.26663 -0.405181 3.76274 -3.43806
480 1 -7.0595 1.45242 3.83257 -3.49118
481 1 -3.5776 -0.184502 1.80648 -3.51001
482 1 -1.68238 1.44599 1.86773 -3.47683
483 1 -1.68092 -0.235172 3.78889 -3.47396
484 1 -3.6344 1.36049 3.87953 -3.49441
485 1 0.038347 -0.335759 1.71877 -3.44555
486 1 1.88839 1.29343 1.92012 -3.49287
487 1 1.9774 -0.096742 3.93264 -3.44783
488 1 0.0513642 1.4807 3.95465 -3.4338
489 1 3.71727 -0.218863 1.856 -3.44842
490 1 5.30974 1.66386 1.93502 -3.47788
491 1 5.44892 -0.204573 3.7587 -3.50562
492 1 3.73467 1.6046 3.96349 -3.48801
493 1 7.2303 -0.0529127 1.8254 -3.5134
494 1 8.88215 1.71578 1.92921 -3.47403
495 1 8.82758 -0.121216 3.88866 -3.46535
496 1 7.05503 1.52709 3.86347 -3.48302
497 1 10.6073 -0.286859 1.95374 -3.46038
498 1 12.3782 1.65159 1.75198 -3.42616
499 1 12.5708 -0.135254 3.73143 -3.52834
500 1 10.6539 1.56789 3.8497 -3.49473
501 1 14.3329 0.0979071 1.90553 -3.45695
502 1 16.1114 2.01483 1.87918 -3.22901
503 1 16.7296 1.00637 4.46331 -3.06568
504 1 14.5279 1.65028 3.65569 -3.36536
505 1 17.6428 1.67584 -0.222066 -2.52119
506 1 -15.8446 4.93112 1.62539 -3.04063
507 1 -15.926 3.51635 3.8203 -3.11557
508 1 -13.9678 3.28058 1.83836 -3.47329
509 1 -12.0043 4.90188 1.94177 -3.42727
510 1 -12.2976 3.04907 3.84776 -3.51964
511 1 -13.9263 4.94425 3.81328 -3.46935
512 1 -10.7546 2.99315 1.94306 -3.42563
513 1 -9.05215 4.91752 1.90932 -3.45779
514 1 -8.83514 3.19497 3.89281 -3.52516
515 1 -10.5832 4.8721 4.01038 -3.50268
516 1 -7.20295 3.18306 1.98235 -3.50381
517 1 -5.37222 4.71298 1.97417 -3.45455
518 1 -5.32169 3.21027 3.98981 -3.45495
519 1 -6.94357 4.86777 3.95208 -3.43513
520 1 -3.5657 3.15474 2.06133 -3.48595
521 1 -1.71023 4.81893 1.9938 -3.517
522 1 -1.57108 3.15554 3.91774 -3.42111
523 1 -3.30675 4.77515 3.97232 -3.4898
524 1 0.0357467 3.03899 2.0263 -3.4494
525 1 1.61759 4.94441 2.09279 -3.40119
526 1 1.8129 3.25851 3.79697 -3.46916
527 1 -0.026216 4.97955 3.96911 -3.39018
528 1 3.47986 3.28586 1.90747 -3.47838
529 1 5.31707 4.98402 2.05733 -3.52669
530 1 5.36584 3.31795 4.05555 -3.45419
531 1 3.54419 4.98323 3.85138 -3.49371
532 1 7.09432 3.2415 1.98286 -3.4619
533 1 9.00265 5.07279 1.91143 -3.52491
534 1 8.96894 3.45679 3.91158 -3.50194
535 1 7.14996 5.07185 3.91044 -3.47238
536 1 10.8403 3.36748 1.87802 -3.45802
537 1 12.4897 5.20774 1.82219 -3.43598
538 1 12.5703 3.24426 4.01216 -3.48875
539 1 10.7992 5.1696 3.81737 -3.53562
540 1 14.1405 3.48559 1.8566 -3.48408
541 1 16.1182 4.90983 1.92209 -2.95054
542 1 15.8591 3.56808 3.98094 -3.19258
543 1 14.0617 5.18737 3.78423 -3.30676
544 1 -15.6865 6.55517 3.73079 -2.75751
545 1 -13.8662 6.56419 1.78718 -3.35939
546 1 -12.1884 8.49289 1.90836 -3.43052
547 1 -12.2467 6.68372 3.9109 -3.46662
548 1 -13.9663 8.31288 3.6686 -3.12231
549 1 -10.4584 6.80016 2.09604 -3.43187
550 1 -8.721 8.48613 1.88012 -3.49278
551 1 -8.76396 6.57976 4.03352 -3.47328
552 1 -10.3761 8.30315 3.93443 -3.44878
553 1 -7.28279 6.39587 1.92049 -3.47913
554 1 -5.19445 8.16354 1.90228 -3.47524
555 1 -5.19019 6.51914 3.89661 -3.49435
556 1 -7.04143 8.30945 3.85352 -3.50563
557 1 -3.54645 6.45022 2.05463 -3.46917
558 1 -1.73919 8.32383 1.83512 -3.4457
559 1 -1.5798 6.59691 3.90633 -3.3661
560 1 -3.39061 8.40975 3.75655 -3.54067
561 1 0.0757622 6.59155 1.91684 -3.3857
562 1 1.62105 8.27604 1.85432 -3.40582
563 1 1.64476 6.76778 4.04345 -3.54981
564 1 -0.262238 8.43808 3.93518 -3.32738
565 1 3.42085 6.70267 1.88038 -3.50393
566 1 5.3361 8.43914 2.05379 -3.49003
567 1 5.2959 6.69648 3.97009 -3.44964
568 1 3.67191 8.44894 4.01592 -3.47661
569 1 7.11035 6.77429 1.9879 -3.4846
570 1 8.87618 8.61122 1.94391 -3.45756
571 1 8.87832 6.78422 4.01801 -3.49767
572 1 6.91138 8.7534 4.0631 -3.47342
573 1 10.6878 6.92823 2.00544 -3.46476
574 1 12.4163 8.52081 1.8427 -3.38828
575 1 12.5756 6.98459 3.93233 -3.45109
576 1 10.6965 8.52403 3.94302 -3.4857
577 1 14.4007 6.78925 1.96187 -3.39157
578 1 16.0595 6.22265 3.77797 -2.67151
579 1 14.3922 8.56226 4.01716 -3.01244
580 1 -13.729 10.4006 1.95304 -2.72504
581 1 -11.8623 12.2207 1.97918 -2.84854
582 1 -12.0188 10.2282 3.67064 -3.31673
583 1 -10.4615 10.2188 1.84275 -3.4557
584 1 -8.53174 11.8041 1.97032 -3.50986
585 1 -8.68726 10.0811 3.87215 -3.5074
586 1 -10.2699 11.9248 3.77192 -3.29946
587 1 -6.78638 10.0972 1.8267 -3.43638
588 1 -5.39416 11.9909 1.78581 -3.46608
589 1 -5.31942 10.2058 3.90573 -3.36568
590 1 -6.84277 11.8882 3.90566 -3.41288
591 1 -3.5906 10.1805 1.8471 -3.55854
592 1 -1.73356 11.9568 1.78282 -3.51
593 1 -1.78687 10.2573 3.7793 -3.43332
594 1 -3.61093 11.7833 3.94292 -3.4206
595 1 -0.197585 9.95285 1.8395 -3.41018
596 1 1.56735 11.6806 1.72791 -3.45597
597 1 1.54708 9.94416 3.93217 -3.4881
598 1 0.0205535 11.9891 3.65245 -3.48359
599 1 3.3751 10.0602 2.01884 -3.49188
600 1 5.11101 11.7731 1.79733 -3.45817
601 1 5.13374 10.4161 3.81277 -3.49481
602 1 3.12359 11.8214 3.86436 -3.47107
603 1 7.04124 10.1344 1.8128 -3.36096
604 1 8.52698 11.8871 1.9774 -3.38305
605 1 8.83665 10.3129 3.8766 -3.4974
606 1 7.0189 12.1046 3.94363 -3.44667
607 1 10.6379 10.3517 2.04238 -3.47594
608 1 12.3929 11.9217 1.96139 -2.77919
609 1 12.4819 10.1608 3.7885 -3.27206
610 1 10.5817 12.0428 3.96189 -3.20871
611 1 14.2812 9.85668 1.97943 -2.67155
612 1 -9.99269 13.8009 1.87538 -2.75112
613 1 -8.42569 13.6477 4.01367 -3.11549
614 1 -7.05026 13.9853 1.95237 -3.29546
615 1 -4.99828 15.7412 1.93048 -2.94065
616 1 -4.99385 13.8795 3.68088 -3.34227
617 1 -6.73835 15.52 3.99481 -2.69946
618 1 -3.50262 13.7366 1.98819 -3.34824
619 1 -1.88267 15.4811 2.06491 -3.06525
620 1 -1.7122 13.733 3.87832 -3.48144
621 1 -3.33215 15.6073 3.93489 -2.99563
622 1 0.130779 13.736 1.73884 -3.51071
623 1 1.83766 15.5434 2.07251 -3.10648
624 1 1.72006 13.8621 3.911 -3.42912
625 1 -0.110944 15.6731 3.71307 -3.16175
626 1 3.29026 13.5453 1.94176 -3.47453
627 1 4.79285 15.3581 1.82708 -2.95072
628 1 5.04347 13.3142 3.84438 -3.38463
629 1 3.60262 15.3348 3.84348 -3.03126
630 1 6.77831 13.6391 1.95001 -3.35438
631 1 8.65404 14.0281 4.02529 -2.94557
632 1 6.47699 15.157 3.90691 -2.81415
633 1 10.4315 13.4262 2.11523 -2.74083
634 1 -0.0391522 16.9597 1.70398 -2.36696
635 1 -5.70261 -14.8869 5.61349 -2.87934
636 1 -7.31377 -14.8589 7.93326 -2.68884
637 1 -1.95777 -14.6329 5.65694 -2.94359
638 1 -3.76059 -14.8984 7.98594 -2.84788
639 1 0.00336324 -15.822 5.8953 -2.50403
640 1 2.32454 -14.7587 5.83645 -3.10558
641 1 0.594613 -14.4758 7.79695 -3.07293
642 1 5.9744 -14.7098 5.80527 -3.01548
643 1 4.34933 -14.8779 7.64001 -3.00568
644 1 7.52277 -14.8259 7.77329 -2.72937
645 1 -13.1653 -11.2743 5.61366 -2.82257
646 1 -11.2075 -13.0447 5.69851 -2.70981
647 1 -9.32182 -11.603 5.97889 -3.42621
648 1 -9.29355 -13.4653 7.79334 -3.05232
649 1 -11.2109 -11.7051 7.76498 -3.29409
650 1 -7.58411 -13.3902 5.85313 -3.26335
651 1 -5.8849 -11.678 5.84513 -3.45641
652 1 -5.58278 -13.3234 7.80437 -3.3328
653 1 -7.44065 -11.6909 7.75843 -3.49042
654 1 -3.94756 -13.1686 5.54164 -3.32494
655 1 -1.75437 -11.8318 5.52663 -3.35153
656 1 -1.61141 -13.3595 7.93622 -3.40682
657 1 -3.73543 -11.7731 7.88881 -3.4137
658 1 0.179069 -13.2648 5.76874 -3.45489
659 1 2.34342 -11.5572 5.83256 -3.4494
660 1 2.57251 -13.0527 7.77023 -3.36752
661 1 0.360056 -11.7585 7.8247 -3.56279
662 1 4.11561 -13.0689 5.79716 -3.36715
663 1 6.14715 -11.4926 5.88326 -3.5141
664 1 6.01349 -13.024 7.79208 -3.41677
665 1 4.2484 -11.3769 7.79873 -3.35849
666 1 7.86368 -13.1222 5.81923 -3.35405
667 1 9.4231 -11.2727 5.8463 -3.36611
668 1 9.34556 -13.1999 7.83054 -3.10428
669 1 7.76107 -11.3253 7.84016 -3.50292
670 1 10.9426 -13.0618 5.96327 -2.77337
671 1 13.2421 -11.4704 5.77006 -2.79003
672 1 11.4798 -11.4466 7.75028 -3.31953
673 1 -14.9223 -9.53998 5.70864 -2.74119
674 1 -13.0257 -8.11661 5.87882 -3.49676
675 1 -12.9972 -9.87185 7.66842 -3.29468
676 1 -14.7695 -8.26961 7.94862 -3.07019
677 1 -11.1972 -9.99305 5.859 -3.47723
678 1 -9.38957 -8.32281 5.87674 -3.50931
679 1 -9.33864 -9.94232 7.88257 -3.47988
680 1 -11.2318 -8.28792 7.97602 -3.47929
681 1 -7.55224 -9.8571 5.95302 -3.42902
682 1 -5.43591 -8.62366 5.80471 -3.4535
683 1 -5.67741 -10.0897 7.89475 -3.45731
684 1 -7.44191 -8.46919 7.92608 -3.44177
685 1 -3.59732 -10.1243 5.78232 -3.46127
686 1 -1.75523 -8.5339 5.63938 -3.43702
687 1 -1.81656 -10.2003 7.77637 -3.44196
688 1 -3.73163 -8.55742 7.9163 -3.46735
689 1 0.119466 -10.5223 5.69464 -3.40647
690 1 1.85575 -8.93853 5.82569 -3.40545
691 1 2.36424 -10.1682 7.90307 -3.42363
692 1 0.222124 -8.88759 7.60091 -3.36458
693 1 4.17423 -9.67598 5.87468 -3.51181
694 1 5.92846 -8.01804 6.0053 -3.44051
695 1 5.89235 -9.60503 7.81296 -3.47556
696 1 4.03625 -8.09182 7.78961 -3.49943
697 1 7.83209 -9.58268 5.98673 -3.41894
698 1 9.84318 -8.02895 6.0259 -3.47055
699 1 9.70666 -9.7376 7.86558 -3.47173
700 1 7.7712 -8.00241 7.86218 -3.46322
701 1 11.4195 -9.89926 5.69512 -3.42646
702 1 13.2763 -8.0356 5.88073 -3.40655
703 1 13.5133 -9.95943 7.7641 -3.25586
704 1 11.72 -8.2168 7.84837 -3.47392
705 1 14.9434 -9.60836 5.68088 -2.7026
706 1 15.1802 -8.08585 7.73632 -3.04473
707 1 -16.7327 -4.85535 5.92837 -2.94057
708 1 -16.5897 -6.66532 7.75913 -2.65456
709 1 -14.9436 -6.57455 6.03119 -3.33118
710 1 -13.0336 -5.00524 6.03353 -3.46157
711 1 -12.9883 -6.62973 8.07903 -3.49926
712 1 -14.8024 -4.90989 8.02503 -3.45782
713 1 -11.1082 -6.49331 6.03536 -3.51249
714 1 -9.05856 -5.12451 5.97062 -3.45992
715 1 -9.20644 -6.66465 7.78617 -3.47751
716 1 -10.9414 -4.97657 8.05277 -3.47767
717 1 -7.26435 -6.92731 5.95997 -3.54586
718 1 -5.43057 -5.27847 5.84278 -3.44263
719 1 -5.37956 -6.79374 7.83289 -3.48704
720 1 -7.29377 -5.12034 7.88806 -3.49938
721 1 -3.61208 -6.90544 5.78828 -3.4963
722 1 -1.52334 -5.48363 5.77135 -3.47487
723 1 -1.57338 -7.27781 7.70206 -3.50712
724 1 -3.37897 -5.27631 7.88316 -3.47289
725 1 0.204362 -7.18992 5.5729 -3.44946
726 1 1.85419 -5.44265 5.43862 -3.47174
727 1 1.81648 -7.16792 7.64785 -3.43265
728 1 0.0898462 -5.39177 7.68125 -3.47379
729 1 3.63587 -7.17451 5.41414 -3.50351
730 1 5.51048 -5.57432 5.66089 -3.47968
731 1 5.89533 -6.51133 7.93595 -3.49634
732 1 3.58198 -5.46178 7.52789 -3.48448
733 1 7.94827 -6.33942 6.2033 -3.45063
734 1 9.72775 -4.56345 6.02172 -3.48093
735 1 9.84405 -6.60058 7.94538 -3.47742
736 1 7.74873 -4.87652 8.11856 -3.47619
737 1 11.4889 -6.30992 5.96476 -3.48709
738 1 13.2871 -4.48541 6.0144 -3.56286