ITEM: TIMESTEP
0
ITEM: NUMBER OF ATOMS
3804
ITEM: BOX BOUNDS ss ss pp
-1.8159547920923664e+01 1.7988125981431349e+01
-1.8135009836256071e+01 1.8378373052846939e+01
0.0000000000000000e+00 4.3380000000000003e+01
ITEM: ATOMS id type x y z c_peratom
1 1 -5.19494 -16.1805 43.2536 -2.98377
2 1 -7.10681 -16.04 1.70611 -2.77513
3 1 -1.73507 -16.3129 43.1993 -3.1553
4 1 -3.4558 -16.14 1.71266 -3.04728
5 1 0.048675 -18.1022 0.00610215 -2.33071
6 1 1.9645 -16.5203 43.1903 -3.15792
7 1 -0.0402158 -16.4879 1.83906 -3.22582
8 1 5.32647 -16.3899 43.2881 -2.97993
9 1 3.72854 -16.5593 1.79358 -3.02613
10 1 7.24446 -16.4959 1.32139 -2.66135
11 1 -12.6583 -12.4302 0.0303489 -2.91348
12 1 -10.949 -14.3582 43.3647 -2.74873
13 1 -8.98835 -12.7324 43.3079 -3.42717
14 1 -9.02718 -14.3381 1.67372 -3.13723
15 1 -10.8524 -12.5143 1.61788 -3.30802
16 1 -7.22127 -14.4278 43.2632 -3.35738
17 1 -5.36152 -12.6807 0.0920132 -3.46398
18 1 -5.31233 -14.2353 1.78244 -3.40923
19 1 -7.18258 -12.5825 1.7005 -3.48383
20 1 -3.41412 -14.4206 43.3787 -3.4457
21 1 -1.61292 -12.8289 0.0559908 -3.50818
22 1 -1.67311 -14.5652 1.77757 -3.44067
23 1 -3.40419 -12.7001 1.88822 -3.50428
24 1 0.0855946 -14.7297 43.2964 -3.50403
25 1 1.78523 -12.795 43.3541 -3.50537
26 1 1.90256 -14.7322 1.64991 -3.48376
27 1 0.12919 -12.7687 1.85892 -3.44049
28 1 3.67767 -14.6862 0.13243 -3.3835
29 1 5.48394 -12.6502 0.0190456 -3.50508
30 1 5.48893 -14.6879 1.82373 -3.48553
31 1 3.65669 -12.8611 1.75899 -3.5393
32 1 7.33709 -14.5963 43.3156 -3.32949
33 1 9.28632 -12.83 0.0564394 -3.46264
34 1 9.115 -14.6861 1.6596 -3.09699
35 1 7.24784 -12.7824 1.74997 -3.53224
36 1 11.0182 -14.6151 0.115459 -2.67051
37 1 12.6664 -12.6825 0.0358074 -2.87722
38 1 11.0741 -12.6163 1.81602 -3.2754
39 1 -14.347 -10.6197 43.1543 -2.78375
40 1 -12.4894 -8.90101 43.1534 -3.46779
41 1 -12.4775 -10.6103 1.77012 -3.28244
42 1 -14.3488 -8.92751 1.62292 -3.16799
43 1 -10.937 -10.7848 43.2722 -3.43272
44 1 -8.98053 -9.00201 43.2775 -3.52741
45 1 -9.04995 -10.8034 1.60413 -3.56565
46 1 -10.839 -8.96634 1.74883 -3.49712
47 1 -7.07204 -10.8783 0.00197171 -3.45996
48 1 -5.36958 -8.98645 43.361 -3.51177
49 1 -5.41097 -10.7907 1.76303 -3.48526
50 1 -7.22192 -8.90871 1.70532 -3.51689
51 1 -3.5561 -10.8214 0.0814717 -3.54136
52 1 -1.78123 -9.07587 0.0573282 -3.52751
53 1 -1.63945 -10.9752 1.81056 -3.52359
54 1 -3.57608 -9.09666 1.86205 -3.5208
55 1 0.106594 -11.0029 43.2148 -3.43397
56 1 1.80535 -9.03693 43.3684 -3.5384
57 1 1.80206 -11.0479 1.73351 -3.47727
58 1 -0.0229132 -9.18534 1.78289 -3.48523
59 1 3.6794 -10.8642 0.140845 -3.51518
60 1 5.37282 -9.07872 43.276 -3.51019
61 1 5.40869 -10.8191 1.92593 -3.49399
62 1 3.53329 -8.99076 1.88548 -3.50497
63 1 7.26383 -10.8684 0.0641973 -3.49037
64 1 9.02461 -9.0505 43.3178 -3.47044
65 1 9.01239 -10.9273 1.74186 -3.52121
66 1 7.21461 -9.17475 1.7872 -3.49715
67 1 10.836 -10.8354 43.3246 -3.51565
68 1 12.6709 -9.05304 43.2495 -3.41932
69 1 12.7002 -10.7271 1.82191 -3.37056
70 1 10.7375 -8.89481 1.76002 -3.49665
71 1 14.5723 -10.7351 43.2884 -2.70561
72 1 14.5972 -9.01827 1.83122 -3.11972
73 1 -16.0556 -5.21485 43.3314 -3.02582
74 1 -16.1373 -7.02211 1.67198 -2.73713
75 1 -14.4012 -7.21917 43.2374 -3.37403
76 1 -12.6788 -5.33085 43.2228 -3.54669
77 1 -12.5706 -7.1562 1.71302 -3.54814
78 1 -14.3754 -5.40545 1.73313 -3.4404
79 1 -10.6747 -7.11712 43.2467 -3.43995
80 1 -9.05498 -5.3779 0.00301796 -3.46046
81 1 -9.15601 -7.16063 1.69346 -3.48655
82 1 -10.8349 -5.40906 1.83562 -3.4805
83 1 -7.09869 -7.20583 43.3594 -3.48119
84 1 -5.31108 -5.37979 0.0766557 -3.4816
85 1 -5.38516 -7.16925 1.69285 -3.47443
86 1 -7.17506 -5.37947 1.83395 -3.52594
87 1 -3.52954 -7.12733 0.0452303 -3.47372
88 1 -1.68388 -5.4249 43.334 -3.4935
89 1 -1.7093 -7.29436 1.87975 -3.52152
90 1 -3.50772 -5.52002 1.7096 -3.46531
91 1 0.051184 -7.11988 0.0420811 -3.4923
92 1 1.75536 -5.33535 43.3278 -3.5291
93 1 1.79655 -7.13614 1.79498 -3.5289
94 1 -0.0737178 -5.46873 1.92968 -3.51198
95 1 3.62073 -7.06853 43.2269 -3.50102
96 1 5.41532 -5.40312 43.328 -3.52455
97 1 5.43033 -7.14942 1.83747 -3.52009
98 1 3.60274 -5.40417 1.88019 -3.51762
99 1 7.21227 -7.37571 0.0080254 -3.50495
100 1 9.02268 -5.51894 0.00299107 -3.51179
101 1 8.91041 -7.33459 1.82747 -3.49028
102 1 7.22967 -5.39967 1.73407 -3.52513
103 1 10.9175 -7.28027 43.33 -3.49079
104 1 12.8216 -5.31855 0.0089641 -3.47517
105 1 12.6501 -7.20357 1.69008 -3.53422
106 1 10.8427 -5.41788 1.88135 -3.4977
107 1 14.6296 -7.3204 43.3759 -3.37016
108 1 16.2979 -5.38053 0.0185758 -2.9928
109 1 16.3752 -7.16585 2.02051 -2.71696
110 1 14.6699 -5.46204 1.75402 -3.43124
111 1 -16.1525 -1.91011 0.171069 -3.14413
112 1 -16.0257 -3.57934 1.9659 -3.08229
113 1 -14.2977 -3.49186 0.0310679 -3.45262
114 1 -12.6109 -1.65115 0.0413294 -3.46316
115 1 -12.5689 -3.58866 1.86828 -3.55087
116 1 -14.3322 -1.63311 1.82094 -3.44602
117 1 -10.7407 -3.5359 43.3632 -3.52603
118 1 -8.98401 -1.68763 43.2827 -3.52958
119 1 -9.07961 -3.53892 1.80424 -3.52174
120 1 -10.7862 -1.6817 1.82197 -3.52093
121 1 -7.29486 -3.68144 0.0447049 -3.51155
122 1 -5.27098 -1.83243 0.058963 -3.50496
123 1 -5.33245 -3.70057 1.82561 -3.50745
124 1 -7.14545 -1.80758 1.73353 -3.55397
125 1 -3.48244 -3.45176 0.0662846 -3.50522
126 1 -1.67994 -1.79313 0.082108 -3.42988
127 1 -1.82501 -3.62857 1.93976 -3.5074
128 1 -3.5694 -1.84445 1.98945 -3.44827
129 1 -0.013096 -3.62629 43.3248 -3.51031
130 1 1.94156 -1.9293 0.0150362 -3.49959
131 1 1.73812 -3.64792 1.98738 -3.51652
132 1 -0.110206 -1.80771 1.79744 -3.47183
133 1 3.65717 -3.58781 43.3537 -3.48452
134 1 5.36212 -1.72851 43.3614 -3.52872
135 1 5.35738 -3.58902 1.77671 -3.50549
136 1 3.55909 -1.9129 1.89937 -3.49354
137 1 7.302 -3.57273 0.0100708 -3.54888
138 1 9.042 -1.77205 43.2932 -3.50728
139 1 9.11245 -3.62246 1.86909 -3.47208
140 1 7.21383 -1.81331 1.8417 -3.50633
141 1 10.691 -3.78924 43.3784 -3.46935
142 1 12.7534 -1.82141 43.3364 -3.46805
143 1 12.6444 -3.68155 1.91452 -3.48135
144 1 10.9257 -1.88946 1.71176 -3.5354
145 1 14.415 -3.50958 0.194423 -3.42286
146 1 16.2281 -1.82314 0.0457374 -3.17673
147 1 16.404 -3.6559 1.89577 -3.03227
148 1 14.4747 -1.70834 1.88277 -3.4852
149 1 -17.9567 -0.0981428 0.251061 -2.26309
150 1 -16.3117 1.93806 0.163442 -3.11294
151 1 -16.2292 -0.116397 2.0079 -3.22897
152 1 -14.4136 -0.0040502 0.0232853 -3.49888
153 1 -12.4542 1.93462 0.0369334 -3.44302
154 1 -12.5593 0.0664078 1.75296 -3.48551
155 1 -14.2856 1.81657 1.804 -3.47296
156 1 -10.8503 0.109495 43.2907 -3.47905
157 1 -8.97432 1.74637 0.0191434 -3.50914
158 1 -9.07199 0.0680078 1.77363 -3.48559
159 1 -10.7401 1.78929 1.81589 -3.4962
160 1 -7.16871 0.0646182 0.0205097 -3.49842
161 1 -5.31382 1.82213 43.3358 -3.5032
162 1 -5.29362 -0.0018392 1.7606 -3.53561
163 1 -7.15288 1.74377 1.87482 -3.51992
164 1 -3.50271 -0.0378262 43.3457 -3.52908
165 1 -1.74415 1.9003 43.2812 -3.51108
166 1 -1.722 0.0514085 1.82227 -3.4599
167 1 -3.41677 1.75732 1.81119 -3.5094
168 1 -0.0149257 -0.0643059 0.0324175 -3.49467
169 1 1.81317 1.88369 0.0120108 -3.53369
170 1 1.70118 -0.0720568 1.91315 -3.52143
171 1 -0.0190826 1.81047 1.9037 -3.52486
172 1 3.56143 0.0625438 0.160066 -3.5258
173 1 5.28095 1.86183 0.0801897 -3.49121
174 1 5.52378 -0.0142969 1.73486 -3.48465
175 1 3.61669 1.81474 1.88732 -3.4755
176 1 7.11275 -0.0201774 43.2732 -3.50408
177 1 9.0289 1.73039 43.3587 -3.49908
178 1 9.03301 -0.0749607 1.7036 -3.51847
179 1 7.23244 1.77018 1.6648 -3.50361
180 1 10.7234 -0.0624629 43.2128 -3.46605
181 1 12.4998 1.89898 43.3335 -3.50501
182 1 12.652 0.129731 1.73397 -3.47448
183 1 10.8831 1.68499 1.82629 -3.47955
184 1 14.4844 0.0801553 0.106091 -3.49106
185 1 16.3575 2.02573 43.2984 -3.15144
186 1 16.3387 0.00300569 1.73424 -3.18472
187 1 14.4143 1.86099 1.70434 -3.45465
188 1 17.931 0.135608 0.0533446 -2.36124
189 1 -15.983 5.34594 43.2577 -3.02491
190 1 -16.0494 3.71132 1.86705 -3.06733
191 1 -14.465 3.58893 0.0319283 -3.40079
192 1 -12.7301 5.41212 0.000616233 -3.51546
193 1 -12.7535 3.66581 1.79053 -3.49002
194 1 -14.4318 5.62143 1.86146 -3.38992
195 1 -10.8958 3.65201 43.322 -3.4848
196 1 -8.92305 5.51254 43.3548 -3.47765
197 1 -8.95862 3.61002 1.85168 -3.5093
198 1 -10.9671 5.4897 1.82599 -3.47761
199 1 -7.22504 3.60255 0.0352853 -3.51507
200 1 -5.36839 5.47809 0.123662 -3.52849
201 1 -5.42636 3.47095 1.80546 -3.50719
202 1 -7.23499 5.3027 1.84453 -3.49467
203 1 -3.54462 3.59215 0.014111 -3.51847
204 1 -1.75711 5.40379 0.0718755 -3.51531
205 1 -1.83713 3.70625 1.78907 -3.49841
206 1 -3.56696 5.42402 1.88871 -3.47676
207 1 0.0612281 3.66777 0.0942347 -3.519
208 1 1.83 5.53536 43.3647 -3.52946
209 1 1.84808 3.70707 1.77264 -3.5081
210 1 0.0186143 5.58335 1.89473 -3.53215
211 1 3.62296 3.66588 0.0605069 -3.48235
212 1 5.23734 5.48208 0.0260212 -3.4923
213 1 5.45824 3.61557 1.75684 -3.50267
214 1 3.66041 5.39887 1.84709 -3.48978
215 1 7.23507 3.67549 0.0669672 -3.50243
216 1 8.91747 5.61127 0.172247 -3.48702
217 1 9.0451 3.5626 1.69743 -3.52266
218 1 7.26928 5.48189 1.93645 -3.47467
219 1 10.8087 3.71705 43.3524 -3.50181
220 1 12.6081 5.48791 0.0497086 -3.53373
221 1 12.552 3.57989 1.85346 -3.53904
222 1 10.7144 5.47347 1.86094 -3.52039
223 1 14.4254 3.68766 0.112885 -3.51422
224 1 16.336 5.3905 0.0124857 -3.00545
225 1 16.3352 3.72972 1.83669 -3.03342
226 1 14.4842 5.5032 1.90184 -3.38979
227 1 -16.3307 7.11974 1.91534 -2.67789
228 1 -14.5207 7.40976 0.0756563 -3.35366
229 1 -12.7001 9.00365 43.1961 -3.46983
230 1 -12.6165 7.17298 1.72153 -3.4529
231 1 -14.5149 8.98793 1.91439 -3.1308
232 1 -10.8712 7.28236 0.00915174 -3.48362
233 1 -9.09827 9.15738 43.3621 -3.48965
234 1 -9.05992 7.21398 1.91443 -3.52207
235 1 -10.7893 8.96504 1.76462 -3.50637
236 1 -7.12678 7.28759 0.00892483 -3.51471
237 1 -5.3764 9.19154 43.2328 -3.51959
238 1 -5.46341 7.35018 1.8807 -3.49339
239 1 -7.25919 9.19629 1.71047 -3.45509
240 1 -3.63369 7.29909 0.133151 -3.49254
241 1 -1.80487 9.16161 43.3493 -3.51725
242 1 -1.87696 7.28143 1.81023 -3.51773
243 1 -3.64917 9.15604 1.69456 -3.50869
244 1 0.0868696 7.23938 43.3507 -3.5055
245 1 1.86195 9.14825 43.3657 -3.46032
246 1 1.96627 7.17792 1.86963 -3.46325
247 1 0.052969 9.02949 1.61362 -3.50531
248 1 3.6003 7.34663 43.3224 -3.51307
249 1 5.35839 9.15732 0.131384 -3.53878
250 1 5.41267 7.31972 1.90796 -3.5447
251 1 3.4242 9.02096 1.88559 -3.47216
252 1 7.10363 7.32982 0.0317212 -3.52745
253 1 8.98797 9.06638 43.3002 -3.49146
254 1 8.92277 7.39363 1.93414 -3.48434
255 1 7.14702 9.14145 1.83383 -3.52252
256 1 10.7624 7.27966 43.2704 -3.51609
257 1 12.581 9.15082 43.1676 -3.42621
258 1 12.6354 7.31774 1.73599 -3.52232
259 1 10.6835 9.09304 1.69867 -3.51272
260 1 14.5552 7.22787 43.3414 -3.34493
261 1 16.1293 7.12197 1.80187 -2.73614
262 1 14.3573 9.06012 1.87659 -3.12564
263 1 -14.4564 10.7861 0.0719079 -2.74986
264 1 -12.6412 12.5295 43.3487 -2.88731
265 1 -12.7385 10.6768 1.7817 -3.29832
266 1 -10.9449 10.8575 0.00274734 -3.49341
267 1 -9.12784 12.6206 43.2823 -3.47224
268 1 -8.92155 10.7155 1.7468 -3.38952
269 1 -10.708 12.568 1.77044 -3.37596
270 1 -7.22561 11.0191 43.2359 -3.45735
271 1 -5.4129 12.8218 43.3748 -3.49773
272 1 -5.49345 11.0581 1.80319 -3.52958
273 1 -7.39558 12.5929 1.78371 -3.4908
274 1 -3.66403 10.9519 43.2759 -3.51995
275 1 -1.728 12.8258 43.1889 -3.49727
276 1 -1.77351 10.8562 1.77793 -3.51465
277 1 -3.62526 12.6932 1.66176 -3.5032
278 1 0.0473069 11.0481 43.331 -3.52917
279 1 1.81283 12.9393 0.13273 -3.44058
280 1 1.78789 10.809 1.87828 -3.46564
281 1 -0.0506069 12.9017 1.72821 -3.51865
282 1 3.43513 10.9547 0.0220166 -3.48605
283 1 5.43819 12.7105 43.3054 -3.49396
284 1 5.36066 10.9917 1.79986 -3.53802
285 1 3.57013 12.7779 1.74628 -3.49359
286 1 7.23298 11.0045 43.3347 -3.49702
287 1 8.95828 12.8487 0.0047327 -3.4418
288 1 8.949 10.8717 1.81545 -3.5285
289 1 7.19596 12.738 1.8747 -3.53673
290 1 10.7462 10.9494 43.1982 -3.53923
291 1 12.5985 12.6782 0.212341 -2.87975
292 1 12.5091 10.9037 1.75277 -3.29291
293 1 10.5288 12.8631 1.81986 -3.30051
294 1 14.255 10.7309 0.164394 -2.73124
295 1 -10.8984 14.3451 43.2541 -2.74382
296 1 -9.03619 14.6083 1.60744 -3.09139
297 1 -7.32837 14.6616 43.379 -3.32492
298 1 -5.44714 16.1719 43.0931 -2.96626
299 1 -5.53576 14.5694 1.73954 -3.45797
300 1 -7.08983 16.4412 1.95627 -2.66546
301 1 -3.6055 14.5641 43.3755 -3.48342
302 1 -1.92218 16.4603 0.145744 -3.13846
303 1 -1.79898 14.5806 1.78263 -3.45829
304 1 -3.75609 16.4047 1.83289 -3.02658
305 1 0.133231 14.5995 43.2595 -3.43534
306 1 1.87868 16.5472 0.132663 -3.14769
307 1 1.84409 14.6839 1.98678 -3.40827
308 1 -0.022696 16.1857 1.88723 -3.20486
309 1 3.49877 14.6085 43.3334 -3.4812
310 1 5.27727 16.4675 43.3117 -2.96003
311 1 5.44707 14.4451 1.86315 -3.45218
312 1 3.72426 16.4051 1.63666 -3.01885
313 1 7.0238 14.6992 43.2515 -3.34498
314 1 8.75767 14.6904 1.93434 -3.15339
315 1 6.91607 16.3662 1.77772 -2.76222
316 1 10.8211 14.6618 0.238174 -2.6309
317 1 0.00140765 18.133 0.618123 -2.40534
318 1 -5.25668 -16.1775 3.34536 -2.98649
319 1 -7.2608 -16.3207 5.10411 -2.65593
320 1 -1.87542 -16.2528 3.70095 -3.18859
321 1 -3.79825 -16.3891 5.36489 -3.03633
322 1 0.129433 -17.9416 3.77542 -2.32748
323 1 1.80575 -16.448 3.56584 -3.07367
324 1 -0.0543128 -16.3077 5.6196 -3.21137
325 1 5.60163 -16.6194 3.51174 -2.92624
326 1 3.70843 -16.3099 5.25011 -3.04629
327 1 7.24158 -16.3575 5.49413 -2.73473
328 1 -12.5991 -12.6395 3.35444 -2.89071
329 1 -10.8164 -14.2687 3.33813 -2.73833
330 1 -9.05464 -12.5973 3.61481 -3.50171
331 1 -9.00746 -14.4442 5.34512 -3.12202
332 1 -10.8975 -12.4276 5.32021 -3.28292
333 1 -7.20164 -14.4771 3.53282 -3.36831
334 1 -5.424 -12.5074 3.51297 -3.48929
335 1 -5.51425 -14.4074 5.484 -3.45303
336 1 -7.18722 -12.622 5.45145 -3.49735
337 1 -3.70526 -14.4194 3.65001 -3.4621
338 1 -1.62229 -12.9038 3.6254 -3.51753
339 1 -1.8571 -14.5903 5.4766 -3.47457
340 1 -3.65318 -12.6753 5.46861 -3.5267
341 1 0.142731 -14.5893 3.5505 -3.45493
342 1 1.75057 -12.8754 3.51643 -3.44991
343 1 1.82247 -14.5695 5.36181 -3.47077
344 1 0.0703301 -12.7836 5.48928 -3.51653
345 1 3.62818 -14.6022 3.55304 -3.47549
346 1 5.45923 -12.9194 3.54943 -3.4896
347 1 5.55223 -14.5794 5.35489 -3.42374
348 1 3.59065 -12.6819 5.17301 -3.50512
349 1 7.48859 -14.7982 3.49013 -3.33282
350 1 9.07425 -12.9115 3.57284 -3.4904
351 1 9.27869 -14.8804 5.34206 -3.00515
352 1 7.21621 -12.8068 5.35471 -3.46199
353 1 11.0747 -14.4164 3.45183 -2.72734
354 1 12.6832 -12.6439 3.55183 -2.85703
355 1 10.8592 -12.635 5.29794 -3.35624
356 1 -14.2706 -10.7441 3.3412 -2.75184
357 1 -12.7173 -8.88865 3.523 -3.43137
358 1 -12.7283 -10.8123 5.28963 -3.33403
359 1 -14.5562 -9.10355 5.13799 -3.09908
360 1 -10.8362 -10.8659 3.53237 -3.48014
361 1 -9.17967 -9.04625 3.57917 -3.47856
362 1 -8.99847 -10.72 5.38026 -3.51024
363 1 -10.8838 -8.89166 5.18615 -3.37627
364 1 -7.1638 -10.8192 3.52746 -3.53076
365 1 -5.3875 -8.98276 3.63145 -3.54981
366 1 -5.36836 -10.8764 5.41619 -3.49686
367 1 -7.21198 -8.87459 5.33867 -3.50851
368 1 -3.54621 -10.8794 3.51064 -3.48966
369 1 -1.72895 -9.15146 3.53598 -3.49904
370 1 -1.84125 -10.9239 5.28164 -3.53061
371 1 -3.58156 -9.06474 5.37452 -3.50321
372 1 0.18702 -10.7947 3.55285 -3.45555
373 1 1.80222 -9.03342 3.59008 -3.45794
374 1 1.8308 -11.0097 5.40852 -3.48997
375 1 0.145809 -9.22585 5.41103 -3.50337
376 1 3.53184 -10.8947 3.49718 -3.52417
377 1 5.47853 -9.12571 3.69075 -3.47276
378 1 5.44284 -10.8773 5.3146 -3.5032
379 1 3.65392 -9.13429 5.33892 -3.53681
380 1 7.23584 -11.0492 3.64902 -3.51389
381 1 8.98646 -9.0733 3.69963 -3.52021
382 1 9.06325 -10.9234 5.36975 -3.47435
383 1 7.21224 -8.97817 5.44919 -3.4983
384 1 10.7128 -10.8669 3.57916 -3.50023
385 1 12.7707 -9.04047 3.5698 -3.41733
386 1 12.6927 -10.7996 5.24702 -3.34296
387 1 10.8833 -9.13506 5.43627 -3.45521
388 1 14.4479 -10.7309 3.5557 -2.72488
389 1 14.5292 -9.18076 5.42772 -3.12595
390 1 -16.3654 -5.45787 3.59399 -2.9445
391 1 -16.2232 -7.12248 5.33962 -2.73375
392 1 -14.4932 -7.10246 3.5465 -3.37477
393 1 -12.5843 -5.40105 3.60572 -3.50598
394 1 -12.7855 -7.25906 5.36986 -3.50949
395 1 -14.3956 -5.36003 5.36978 -3.46437
396 1 -10.877 -7.21052 3.76853 -3.3719
397 1 -9.07479 -5.37922 3.5254 -3.52542
398 1 -9.03262 -7.12126 5.34121 -3.49593
399 1 -11.0194 -5.44896 5.54505 -3.39544
400 1 -7.27463 -7.27778 3.53684 -3.50769
401 1 -5.32157 -5.5699 3.58622 -3.48481
402 1 -5.39655 -7.14693 5.39738 -3.50232
403 1 -7.18765 -5.46188 5.37081 -3.53201
404 1 -3.47813 -7.14413 3.71431 -3.51503
405 1 -1.75678 -5.43766 3.75893 -3.50065
406 1 -1.74925 -7.37609 5.42965 -3.48864
407 1 -3.58407 -5.36408 5.60302 -3.48079
408 1 0.0275828 -7.38672 3.71586 -3.51691
409 1 1.87765 -5.47558 3.68918 -3.52742
410 1 1.81964 -7.30323 5.39112 -3.53107
411 1 -0.0956135 -5.4981 5.50567 -3.47625
412 1 3.66279 -7.22049 3.57183 -3.48859
413 1 5.375 -5.43018 3.67334 -3.53609
414 1 5.39671 -7.25671 5.44019 -3.51509
415 1 3.64974 -5.38256 5.56221 -3.48739
416 1 7.20441 -7.23658 3.57514 -3.52711
417 1 9.10899 -5.432 3.54731 -3.49482
418 1 9.20211 -7.21448 5.32152 -3.52531
419 1 7.28464 -5.44675 5.50034 -3.50324
420 1 10.9418 -7.2475 3.59671 -3.51831
421 1 12.7827 -5.45059 3.59609 -3.52995
422 1 12.6486 -7.38086 5.44758 -3.52784
423 1 10.9586 -5.36021 5.48557 -3.45808
424 1 14.5314 -7.32567 3.60807 -3.35118
425 1 16.2269 -5.38934 3.69183 -3.01947
426 1 16.2205 -7.27862 5.29009 -2.73653
427 1 14.4618 -5.51646 5.37536 -3.45062
428 1 -16.2874 -1.87422 3.73967 -3.15515
429 1 -16.6372 -3.56873 5.5177 -2.89136
430 1 -14.2904 -3.57963 3.72498 -3.48798
431 1 -12.5369 -1.7432 3.68773 -3.51995
432 1 -12.3954 -3.6598 5.41545 -3.36578
433 1 -14.4606 -1.74911 5.41202 -3.45493
434 1 -10.8216 -3.60643 3.65374 -3.48926
435 1 -8.98129 -1.71933 3.6289 -3.47505
436 1 -9.10646 -3.64195 5.42201 -3.54286
437 1 -10.7183 -1.81406 5.45624 -3.46841
438 1 -7.12981 -3.64447 3.59366 -3.54452
439 1 -5.18638 -1.9051 3.61499 -3.46093
440 1 -5.37983 -3.78187 5.47802 -3.50889
441 1 -7.23678 -1.78697 5.31728 -3.49485
442 1 -3.66631 -3.81235 3.66429 -3.48896
443 1 -1.89789 -2.00917 3.74567 -3.51475
444 1 -1.77031 -3.68891 5.59337 -3.48982
445 1 -3.59201 -1.73209 5.46065 -3.50491
446 1 0.0354801 -3.68082 3.68889 -3.48433
447 1 1.61972 -1.78847 3.70393 -3.47118
448 1 1.73981 -3.70821 5.49356 -3.50219
449 1 0.0639022 -1.93433 5.4556 -3.45465
450 1 3.51407 -3.5612 3.75115 -3.52632
451 1 5.47912 -1.91766 3.53101 -3.48254
452 1 5.28098 -3.54721 5.52799 -3.50294
453 1 3.59606 -1.66859 5.43 -3.49042
454 1 7.26788 -3.70336 3.66693 -3.51881
455 1 9.10883 -1.85022 3.44171 -3.49225
456 1 9.0285 -3.6692 5.47599 -3.50604
457 1 7.19443 -1.83579 5.25285 -3.52725
458 1 10.8908 -3.74445 3.84225 -3.45613
459 1 12.6091 -1.8432 3.7323 -3.50446
460 1 12.694 -3.61164 5.49158 -3.48437
461 1 10.7128 -1.7275 5.37956 -3.47672
462 1 14.4602 -3.55869 3.51972 -3.48857
463 1 16.5022 -1.76173 3.62534 -3.12697
464 1 16.2558 -3.50867 5.43617 -3.05373
465 1 14.5254 -1.6529 5.30678 -3.50141
466 1 -18.0102 -0.0312892 3.80289 -2.35958
467 1 -16.0779 1.77129 3.58898 -3.16999
468 1 -16.2665 0.12963 5.35516 -3.18258
469 1 -14.4559 -0.0338309 3.67582 -3.47217
470 1 -12.5366 1.77535 3.67468 -3.53424
471 1 -12.5834 -0.0461447 5.44862 -3.51335
472 1 -14.3414 1.90053 5.51302 -3.47077
473 1 -10.7247 -0.110735 3.68891 -3.44466
474 1 -9.04528 1.80977 3.63494 -3.53782
475 1 -9.06642 -0.0195997 5.50141 -3.49996
476 1 -10.8599 1.88391 5.43171 -3.51199
477 1 -7.15529 -0.0541317 3.66487 -3.50114
478 1 -5.37746 1.73761 3.72711 -3.51792
479 1 -5.43295 0.0372008 5.49443 -3.49198
480 1 -7.26065 1.67675 5.57638 -3.50029
481 1 -3.38482 0.0806654 3.65945 -3.49915
482 1 -1.78212 1.88722 3.695 -3.48318
483 1 -1.75556 0.0605482 5.50535 -3.4984
484 1 -3.66833 1.82275 5.5221 -3.52275
485 1 -0.0955384 0.000143737 3.64761 -3.52243
486 1 1.8258 1.81651 3.58293 -3.5405
487 1 1.74748 -0.0136054 5.49968 -3.50258
488 1 0.066586 1.82767 5.47221 -3.51222
489 1 3.63417 -0.135861 3.56698 -3.51252
490 1 5.24243 1.74915 3.6707 -3.48115
491 1 5.39612 -0.0197517 5.37535 -3.50678
492 1 3.62173 1.75746 5.52236 -3.53254
493 1 7.23292 0.0684355 3.54311 -3.51673
494 1 9.0038 1.77951 3.59984 -3.53246
495 1 8.91699 0.0151314 5.47879 -3.49668
496 1 7.06681 1.89699 5.41299 -3.49886
497 1 10.919 -0.0648122 3.54496 -3.48798
498 1 12.6858 1.80204 3.6154 -3.4836
499 1 12.6851 0.109087 5.31545 -3.47379
500 1 10.8208 1.87604 5.42904 -3.52033
501 1 14.5359 0.0905652 3.48881 -3.50856
502 1 16.3733 1.81026 3.49434 -3.14376
503 1 16.3003 0.053502 5.32664 -3.26303
504 1 14.4735 1.72852 5.36953 -3.49244
505 1 17.9809 0.104623 3.44937 -2.36605
506 1 -16.0794 5.3563 3.6283 -3.01527
507 1 -16.082 3.50212 5.38289 -3.06274
508 1 -14.2619 3.50018 3.65341 -3.41877
509 1 -12.7318 5.44265 3.67224 -3.50881
510 1 -12.6779 3.66584 5.50147 -3.5071
511 1 -14.462 5.39076 5.6331 -3.48041
512 1 -10.8199 3.77355 3.66093 -3.54909
513 1 -8.98619 5.50913 3.73905 -3.45171
514 1 -9.05743 3.56208 5.53782 -3.50835
515 1 -10.7743 5.44089 5.45972 -3.47071
516 1 -7.23732 3.51446 3.75054 -3.54388
517 1 -5.34229 5.38204 3.65988 -3.52351
518 1 -5.43151 3.66719 5.52483 -3.51013
519 1 -7.30544 5.42584 5.44512 -3.50467
520 1 -3.71607 3.65039 3.52653 -3.46565
521 1 -1.88189 5.59687 3.68836 -3.51413
522 1 -1.64263 3.57809 5.42571 -3.4955
523 1 -3.55536 5.4254 5.53486 -3.47965
524 1 0.115235 3.70147 3.59177 -3.50139
525 1 1.85689 5.41306 3.62945 -3.48509
526 1 1.79732 3.70609 5.37947 -3.52294
527 1 -0.0336155 5.43845 5.43019 -3.53141
528 1 3.60175 3.57073 3.61962 -3.51746
529 1 5.36935 5.48195 3.70996 -3.51549
530 1 5.32149 3.68016 5.42561 -3.51074
531 1 3.60274 5.464 5.49811 -3.50408
532 1 7.08331 3.65199 3.607 -3.52378
533 1 8.95028 5.45708 3.5548 -3.47303
534 1 8.92995 3.68457 5.28312 -3.48553
535 1 7.2503 5.44303 5.40061 -3.52012
536 1 10.7993 3.70353 3.72203 -3.45498
537 1 12.5608 5.39313 3.62978 -3.52705
538 1 12.6876 3.50278 5.38007 -3.48888
539 1 10.7415 5.41961 5.34234 -3.51213
540 1 14.4891 3.57122 3.45435 -3.46895
541 1 16.0768 5.39065 3.65025 -2.99222
542 1 16.1311 3.61561 5.36421 -3.07057
543 1 14.355 5.24547 5.38987 -3.44035
544 1 -16.2321 7.1317 5.59518 -2.73136
545 1 -14.4616 7.20327 3.68025 -3.35857
546 1 -12.4964 8.96741 3.63467 -3.46128
547 1 -12.6366 7.1311 5.47749 -3.52779
548 1 -14.5289 8.89734 5.43409 -3.09403
549 1 -10.9529 7.1359 3.54799 -3.46592
550 1 -8.96171 8.99161 3.56188 -3.51848
551 1 -9.15496 7.14933 5.3831 -3.43438
552 1 -10.9219 9.04238 5.52939 -3.51046
553 1 -7.09929 7.37328 3.7197 -3.48686
554 1 -5.44675 9.13215 3.59488 -3.4827
555 1 -5.3939 7.23129 5.4705 -3.50284
556 1 -7.2331 9.08064 5.54144 -3.50774
557 1 -3.72391 7.44827 3.61306 -3.49617
558 1 -1.93221 9.13465 3.63258 -3.53744
559 1 -1.87957 7.32292 5.46135 -3.52292
560 1 -3.70612 9.06447 5.51807 -3.51558
561 1 -0.0840584 7.31144 3.65521 -3.52708
562 1 1.74426 9.1957 3.74829 -3.51136
563 1 1.74401 7.3281 5.45011 -3.499
564 1 -0.0257458 9.07673 5.46775 -3.49147
565 1 3.55949 7.19045 3.72925 -3.48788
566 1 5.22595 9.13653 3.61284 -3.51596
567 1 5.41968 7.19686 5.46755 -3.51269
568 1 3.6008 9.02131 5.42716 -3.50221
569 1 7.19107 7.30584 3.6954 -3.50456
570 1 9.04758 9.07361 3.64707 -3.50096
571 1 8.90269 7.29454 5.37973 -3.50517
572 1 7.19893 9.17729 5.46709 -3.5276
573 1 10.9094 7.28709 3.56645 -3.51273
574 1 12.5512 9.10896 3.62427 -3.49626
575 1 12.5702 7.25854 5.49829 -3.49421
576 1 10.7684 8.9908 5.38076 -3.48115
577 1 14.3624 7.24238 3.6449 -3.38355
578 1 16.1151 7.1511 5.35688 -2.74844
579 1 14.6208 9.28486 5.29653 -3.07123
580 1 -14.3073 10.6094 3.74018 -2.76581
581 1 -12.745 12.4193 3.32478 -2.84871
582 1 -12.5287 10.9798 5.34466 -3.31154
583 1 -10.8378 10.7312 3.5495 -3.49299
584 1 -9.00884 12.6126 3.57455 -3.42568
585 1 -9.17952 10.8217 5.31145 -3.50863
586 1 -10.823 12.7408 5.22967 -3.30257
587 1 -7.23618 10.872 3.59761 -3.51763
588 1 -5.52394 12.8386 3.64329 -3.5313
589 1 -5.32843 10.9601 5.43564 -3.50834
590 1 -7.27937 12.7516 5.39784 -3.51651
591 1 -3.65225 11.0236 3.6366 -3.52027
592 1 -1.75852 12.7146 3.56011 -3.51052
593 1 -1.66166 10.9166 5.4662 -3.45894
594 1 -3.46072 12.6277 5.43097 -3.4801
595 1 -0.0238739 10.9011 3.51786 -3.48618
596 1 1.67945 12.6871 3.5467 -3.52637
597 1 1.83646 11.1027 5.4671 -3.47508
598 1 0.0110699 12.6185 5.38385 -3.45481
599 1 3.62522 11.0491 3.5498 -3.48509
600 1 5.30425 12.7163 3.72168 -3.45665
601 1 5.34636 10.8982 5.35613 -3.48302
602 1 3.56627 12.6618 5.52765 -3.45541
603 1 7.06945 10.8781 3.65487 -3.50868
604 1 8.92639 12.63 3.65365 -3.48882
605 1 8.99023 10.9284 5.48576 -3.50146
606 1 7.0846 12.6925 5.33315 -3.50997
607 1 10.7861 10.9621 3.56805 -3.50237
608 1 12.3759 12.7572 3.49189 -2.90105
609 1 12.588 10.9038 5.45187 -3.35631
610 1 10.8896 12.6756 5.44292 -3.32425
611 1 14.2158 11.1392 3.48099 -2.729
612 1 -10.812 14.3619 3.4415 -2.7104
613 1 -9.11777 14.4749 5.51589 -3.08178
614 1 -7.41587 14.4399 3.47219 -3.32696
615 1 -5.46375 16.0309 3.70547 -3.0183
616 1 -5.27402 14.2457 5.58982 -3.41045
617 1 -7.24017 16.0301 5.29396 -2.7791
618 1 -3.5518 14.445 3.53648 -3.50509
619 1 -1.87109 16.4237 3.64455 -3.17034
620 1 -1.71877 14.6593 5.5123 -3.45682
621 1 -3.76729 16.2403 5.46359 -3.03075
622 1 -0.0782365 14.5878 3.7888 -3.47756
623 1 1.94101 16.3802 3.64445 -3.14224
624 1 1.94077 14.5533 5.25689 -3.4731
625 1 -0.0480328 16.403 5.4561 -3.18637
626 1 3.57959 14.5299 3.51284 -3.42503
627 1 5.37712 16.4618 3.63414 -3.00293
628 1 5.31781 14.6131 5.3308 -3.43079
629 1 3.64629 16.3422 5.504 -3.02637
630 1 6.99547 14.6035 3.61918 -3.29952
631 1 9.01587 14.4959 5.32295 -3.13589
632 1 7.12595 16.2263 5.41537 -2.77699
633 1 10.6312 14.4981 3.59883 -2.75292
634 1 0.042108 18.0595 3.37857 -2.44123
635 1 -5.63609 -16.4845 7.06122 -2.94562
636 1 -7.30339 -16.1488 9.09719 -2.73871
637 1 -2.06685 -16.5942 7.2087 -3.07264
638 1 -4.0642 -16.5142 8.89425 -2.96172
639 1 -0.210356 -17.9899 7.46253 -2.3632
640 1 1.90047 -16.4701 7.19903 -3.14666
641 1 -0.00422323 -16.3035 9.18409 -3.17125
642 1 5.38196 -16.3403 7.09208 -2.98146
643 1 3.64892 -16.4084 9.02541 -3.03636
644 1 6.90624 -16.2736 8.89487 -2.74615
645 1 -12.7158 -12.5196 7.08938 -2.88034
646 1 -10.8993 -14.3061 7.03642 -2.73612
647 1 -9.04721 -12.651 7.10095 -3.46243
648 1 -9.26099 -14.4256 8.97598 -3.1229
649 1 -10.9844 -12.5871 8.93441 -3.33676
650 1 -7.41866 -14.4254 7.17225 -3.32139
651 1 -5.5176 -12.8566 7.22693 -3.42537
652 1 -5.49044 -14.5611 8.97162 -3.43878
653 1 -7.26671 -12.6799 8.89484 -3.51786
654 1 -3.71886 -14.6975 7.23181 -3.46635
655 1 -1.81018 -12.8358 7.1783 -3.51469
656 1 -1.90539 -14.632 8.94593 -3.47584
657 1 -3.63108 -12.7416 9.02496 -3.50753
658 1 0.0563358 -14.6606 7.24863 -3.47268
659 1 1.92471 -12.8938 7.11516 -3.49602
660 1 1.90759 -14.6978 9.00721 -3.49333
661 1 0.220041 -12.8208 8.92493 -3.48443
662 1 3.62504 -14.668 7.07762 -3.43602
663 1 5.36659 -12.7486 7.07718 -3.54727
664 1 5.22469 -14.5781 8.92014 -3.42511
665 1 3.71581 -12.7339 9.06598 -3.51852
666 1 7.20991 -14.5551 7.12033 -3.3481
667 1 8.93897 -12.789 7.18167 -3.45027
668 1 9.06733 -14.5432 9.008 -3.12062
669 1 7.08964 -12.7777 8.99781 -3.54355
670 1 10.8544 -14.2953 7.09634 -2.74474
671 1 12.6053 -12.5157 7.29184 -2.89455
672 1 10.8478 -12.6563 8.92721 -3.28556
673 1 -14.4472 -10.6543 7.07219 -2.7807
674 1 -12.5506 -9.02183 7.21776 -3.43456
675 1 -12.7072 -10.7636 8.89879 -3.31825
676 1 -14.55 -8.91615 8.93843 -3.09029
677 1 -10.9921 -10.8098 6.9928 -3.42028
678 1 -9.09464 -9.02875 7.06866 -3.52864
679 1 -8.97766 -10.8089 8.83048 -3.51772
680 1 -10.8989 -9.06456 9.00025 -3.5034
681 1 -7.05633 -10.6721 7.1297 -3.49599
682 1 -5.229 -9.06052 7.19058 -3.44536
683 1 -5.34463 -10.873 9.0564 -3.53336
684 1 -7.2399 -9.08766 8.96308 -3.49473
685 1 -3.67837 -10.8509 7.21134 -3.47772
686 1 -1.76993 -9.14587 7.01884 -3.49074
687 1 -1.86358 -10.9731 8.9674 -3.51117
688 1 -3.47623 -9.05397 8.95069 -3.50996
689 1 0.0696023 -11.0845 7.24676 -3.50212
690 1 1.99393 -9.10334 7.21962 -3.46992
691 1 1.82843 -10.9692 9.06353 -3.48862
692 1 -0.0409216 -9.19539 8.93675 -3.51799
693 1 3.65177 -10.949 7.05817 -3.50379
694 1 5.485 -9.05774 7.26 -3.53491
695 1 5.41915 -10.9328 9.03037 -3.48448
696 1 3.60802 -9.30181 8.94514 -3.4349
697 1 7.29445 -11.0148 7.10683 -3.52382
698 1 9.03323 -9.12499 7.12816 -3.48571
699 1 9.05681 -11.0659 9.07454 -3.51431
700 1 7.381 -9.09667 9.02323 -3.5184
701 1 10.8055 -10.7865 7.161 -3.50063
702 1 12.647 -9.13545 7.20129 -3.43959
703 1 12.5182 -10.8857 9.17604 -3.34395
704 1 10.8136 -9.02391 9.09923 -3.51127
705 1 14.38 -10.7656 7.33221 -2.72676
706 1 14.383 -9.11529 9.06 -3.12922
707 1 -16.2077 -5.32538 7.18235 -3.01862
708 1 -16.1728 -7.2225 9.03033 -2.72985
709 1 -14.5808 -7.37135 7.07709 -3.34412
710 1 -12.7292 -5.31114 7.24148 -3.49156
711 1 -12.7583 -7.23878 8.96289 -3.52792
712 1 -14.574 -5.29703 8.93171 -3.47693
713 1 -10.8547 -7.22073 7.21707 -3.51912
714 1 -9.1469 -5.44576 7.08679 -3.47206
715 1 -8.97463 -7.2363 8.90325 -3.51323
716 1 -11.0357 -5.43627 9.05652 -3.5359
717 1 -7.16182 -7.2515 7.26918 -3.50908
718 1 -5.39324 -5.52502 7.36658 -3.44319
719 1 -5.48047 -7.20628 9.08172 -3.46453
720 1 -7.31464 -5.38944 8.93214 -3.49281
721 1 -3.66631 -7.26361 7.21092 -3.50527
722 1 -1.72345 -5.46906 7.24608 -3.49978
723 1 -1.669 -7.3966 9.03755 -3.49086
724 1 -3.69103 -5.47572 9.04067 -3.49268
725 1 0.0322561 -7.36054 7.23351 -3.52484
726 1 1.79036 -5.51515 7.13416 -3.49505
727 1 1.80091 -7.38032 8.9827 -3.52594
728 1 0.177375 -5.41324 9.02124 -3.4583
729 1 3.68434 -7.3978 7.30725 -3.49654
730 1 5.52782 -5.57431 7.20654 -3.50484
731 1 5.64796 -7.38341 9.03187 -3.47376
732 1 3.64833 -5.62311 9.05845 -3.53437
733 1 7.37511 -7.25582 7.19114 -3.50892
734 1 9.13225 -5.43085 7.26777 -3.52245
735 1 9.07884 -7.20253 9.19062 -3.5143
736 1 7.32251 -5.45168 9.03152 -3.51284
737 1 10.8461 -7.46759 7.19818 -3.48766
738 1 12.7108 -5.57488 7.2596 -3.5323
739 1 12.6037 -7.42058 8.98144 -3.48752
740 1 10.9498 -5.5779 9.06869 -3.52744
741 1 14.4889 -7.37249 7.1092 -3.37315
742 1 16.1616 -5.39878 7.1871 -2.99372
743 1 16.1628 -7.29457 9.12891 -2.67422
744 1 14.3587 -5.4088 9.13785 -3.46519
745 1 -16.3455 -1.8864 7.23112 -3.1491
746 1 -16.5261 -3.53379 8.98851 -2.99147