ITEM: TIMESTEP
148000
ITEM: NUMBER OF ATOMS
3804
ITEM: BOX BOUNDS ss ss pp
-1.7809158250909316e+01 1.7587782611769715e+01
-1.7074701221220938e+01 1.7892735309876567e+01
-3.2101199999999999e+00 4.6590120000000006e+01
ITEM: ATOMS id type x y z c_peratom
1 1 -5.6948 -14.2289 -2.751 -3.01697
2 1 -7.34916 -14.2175 -0.927076 -2.72727
3 1 -2.52596 -14.4372 -2.61255 -3.1085
4 1 -4.21769 -14.4563 -0.783964 -2.98738
5 1 -0.317088 -15.6369 -2.74209 -2.69062
6 1 1.37831 -15.5611 45.1636 -2.96642
7 1 -0.485903 -14.513 -0.621201 -3.23033
8 1 5.74046 -15.2445 45.3919 -2.86983
9 1 4.04738 -15.2878 -1.99507 -2.81527
10 1 7.38462 -13.9223 0.0882212 -2.70335
11 1 -12.7535 -10.3806 -2.98375 -2.83382
12 1 -11.2541 -12.2462 -2.87069 -2.66168
13 1 -9.34703 -10.8224 -2.88648 -3.43776
14 1 -9.44429 -12.5951 -0.989299 -3.07798
15 1 -11.048 -10.6193 -0.976575 -3.34493
16 1 -7.47304 -12.4589 -2.87344 -3.32231
17 1 -5.7908 -10.8326 -2.69873 -3.46036
18 1 -5.76836 -12.445 -0.800182 -3.41322
19 1 -7.66635 -10.8486 -0.871792 -3.50759
20 1 -3.99377 -12.5004 -2.66444 -3.46561
21 1 -2.11537 -12.601 45.221 -3.45509
22 1 -2.34012 -12.7111 -0.584418 -3.48848
23 1 -4.0795 -10.8392 -0.6869 -3.47293
24 1 -1.1124 -14.66 45.1668 -3.03751
25 1 1.16227 -13.0324 45.2105 -3.5089
26 1 1.65287 -14.2888 -2.2163 -3.25194
27 1 -0.505987 -13.0839 -2.60856 -3.45126
28 1 3.38975 -14.2874 45.6725 -3.3291
29 1 5.2461 -12.7489 45.3083 -3.4222
30 1 5.97494 -13.8174 -2.18434 -3.15987
31 1 3.59883 -12.8826 -2.13325 -3.37127
32 1 7.62885 -13.7128 45.56 -3.08942
33 1 9.53797 -11.9015 45.7429 -3.21464
34 1 9.35777 -12.6446 0.103679 -2.89819
35 1 7.79614 -12.1455 -1.96955 -3.35276
36 1 10.6893 -12.1678 -1.77833 -2.71595
37 1 12.4835 -10.4108 -1.47493 -2.81311
38 1 10.6971 -10.692 0.242606 -3.30272
39 1 -14.5133 -8.76917 -2.7856 -2.64372
40 1 -12.7695 -6.96281 -2.75391 -3.41596
41 1 -12.8843 -8.73378 -0.93837 -3.30139
42 1 -14.5619 -6.99105 -0.658889 -3.04658
43 1 -11.0801 -8.71512 -2.78356 -3.46778
44 1 -9.14821 -7.21204 -2.74587 -3.44937
45 1 -9.35216 -8.92461 -0.850665 -3.50665
46 1 -11.1998 -7.12031 -0.849774 -3.44191
47 1 -7.64682 -9.06382 -2.93017 -3.48149
48 1 -5.58619 -9.03913 45.2255 -3.4526
49 1 -5.8819 -9.04021 -0.995963 -3.42519
50 1 -7.47245 -7.1539 -0.812864 -3.4573
51 1 -3.96817 -10.8032 45.2558 -3.47392
52 1 -1.97512 -9.27842 45.4242 -3.46246
53 1 -1.95308 -11.0192 -2.43353 -3.52882
54 1 -4.01713 -9.11463 -2.5572 -3.45236
55 1 -0.1888 -10.9037 45.3471 -3.47067
56 1 1.75617 -9.46068 45.805 -3.36182
57 1 1.45206 -11.712 -2.56213 -3.46935
58 1 0.0845486 -9.68224 -2.23776 -3.43207
59 1 3.28426 -11.3874 45.4385 -3.43711
60 1 5.07199 -9.53924 45.7963 -3.52682
61 1 5.48505 -11.4429 -2.27261 -3.34779
62 1 3.51517 -9.89742 -2.13861 -3.53667
63 1 7.0351 -11.1798 45.5863 -3.50696
64 1 8.76635 -9.40973 45.6603 -3.43432
65 1 9.44816 -10.2273 -1.89698 -3.40581
66 1 6.96743 -9.64403 -2.07661 -3.43852
67 1 11.2709 -10.2726 46.0342 -3.28165
68 1 12.7689 -8.35114 46.2879 -3.1909
69 1 12.5389 -8.83587 0.559322 -3.29056
70 1 11.0299 -8.4296 -1.55265 -3.50181
71 1 13.9127 -8.61504 -1.54533 -2.67115
72 1 14.1912 -6.88156 0.69998 -3.04094
73 1 -16.2851 -3.43119 -2.84594 -2.92767
74 1 -16.129 -5.02137 -0.879254 -2.74954
75 1 -14.522 -5.41174 -2.66842 -3.28828
76 1 -12.6234 -3.63919 -2.71571 -3.52982
77 1 -12.8268 -5.40266 -0.818978 -3.44485
78 1 -14.3994 -3.41008 -0.732366 -3.42732
79 1 -10.8423 -5.30606 -2.82201 -3.48732
80 1 -9.00323 -5.52168 45.3124 -3.50724
81 1 -9.29422 -5.33599 -0.555686 -3.42956
82 1 -10.9965 -3.73261 -0.71106 -3.44881
83 1 -7.18354 -7.33959 45.0483 -3.44015
84 1 -5.48632 -5.72234 45.2697 -3.42989
85 1 -5.72884 -7.36091 -2.62764 -3.46219
86 1 -7.34978 -5.33394 -2.612 -3.45871
87 1 -3.71661 -7.48346 45.3006 -3.48865
88 1 -1.70761 -6.11472 45.7841 -3.46472
89 1 -1.85714 -8.15448 -2.02041 -3.44358
90 1 -3.44106 -6.33289 -2.06753 -3.43797
91 1 -0.0498435 -7.87758 45.5835 -3.45097
92 1 1.77695 -5.9006 45.8436 -3.45527
93 1 1.85023 -7.91501 -2.01399 -3.43798
94 1 -0.0309338 -6.37444 -2.04652 -3.51284
95 1 3.3619 -7.70667 45.7027 -3.44622
96 1 5.21498 -6.00952 45.8682 -3.52823
97 1 5.10611 -7.80096 -2.08305 -3.50735
98 1 3.43183 -6.12953 -1.91195 -3.42188
99 1 6.89652 -7.81572 45.7358 -3.48746
100 1 8.48422 -5.95908 45.8212 -3.52217
101 1 8.57558 -7.81457 -2.15672 -3.45213
102 1 6.96469 -6.04811 -1.92399 -3.46635
103 1 10.4391 -7.84857 45.8308 -3.44621
104 1 12.0853 -6.0819 45.9555 -3.42168
105 1 12.6199 -6.52524 -1.49392 -3.37412
106 1 10.2551 -6.0788 -1.93939 -3.47486
107 1 14.4967 -6.62566 46.328 -3.16477
108 1 16.1514 -4.70142 46.3479 -2.81494
109 1 15.7618 -4.60415 0.718408 -2.74733
110 1 14.4941 -4.95215 -1.36499 -3.26566
111 1 -15.7353 0.41367 -2.47008 -3.06813
112 1 -16.1984 -1.71604 -0.875844 -3.03547
113 1 -14.4098 -1.83228 -2.62341 -3.44106
114 1 -12.592 -1.86122 45.2661 -3.47379
115 1 -12.5612 -1.79008 -0.697812 -3.45797
116 1 -14.3358 -0.16692 -0.568611 -3.30616
117 1 -10.7777 -3.67169 45.167 -3.51753
118 1 -8.86587 -2.05002 45.39 -3.49193
119 1 -9.11845 -3.63251 -2.56217 -3.41038
120 1 -10.7839 -1.98111 -2.45306 -3.45607
121 1 -7.05663 -3.79411 45.3228 -3.39596
122 1 -5.13444 -2.55501 45.9034 -3.40935
123 1 -5.06846 -4.60311 -2.05219 -3.46977
124 1 -6.91124 -2.83962 -2.0608 -3.48255
125 1 -3.49778 -4.36424 45.6895 -3.48571
126 1 -1.91321 -2.36838 45.8767 -3.50161
127 1 -1.82614 -4.52085 -2.06113 -3.49675
128 1 -3.58079 -2.68306 -2.06369 -3.43029
129 1 -0.0742658 -4.09115 45.9431 -3.44295
130 1 1.5162 -2.33325 46.0858 -3.46865
131 1 1.69723 -4.42172 -1.65122 -3.43756
132 1 -0.113559 -2.63884 -1.89053 -3.47047
133 1 3.41131 -4.2001 45.975 -3.48629
134 1 5.21073 -2.37572 46.2581 -3.45689
135 1 5.19669 -4.34372 -1.84904 -3.52313
136 1 3.36553 -2.56698 -1.90614 -3.47093
137 1 6.93755 -4.00806 46.054 -3.4373
138 1 8.70715 -2.4827 46.0493 -3.40326
139 1 8.63751 -4.1746 -1.84678 -3.50196
140 1 6.80871 -2.31536 -1.52728 -3.46212
141 1 10.3082 -4.2567 46.1471 -3.46149
142 1 12.0612 -2.37298 46.3984 -3.51366
143 1 12.013 -4.19593 -1.54614 -3.48868
144 1 10.2779 -2.32705 -1.55984 -3.46513
145 1 13.6482 -4.27359 46.128 -3.45418
146 1 15.4392 -2.42378 46.2918 -3.22909
147 1 16.3027 -3.15337 -1.29504 -2.84967
148 1 13.8674 -2.50083 -1.51161 -3.49385
149 1 -17.7894 2.45056 40.7618 -2.6385
150 1 -15.8774 2.17039 45.2312 -3.06471
151 1 -15.6102 1.83897 -0.192921 -3.13825
152 1 -14.0961 0.252986 45.434 -3.51864
153 1 -11.9046 1.60672 45.6978 -3.3778
154 1 -12.5283 -0.0912718 -2.40748 -3.3909
155 1 -13.6886 1.84939 -2.02199 -3.36969
156 1 -10.6697 -0.314059 45.5028 -3.38088
157 1 -8.55463 0.880178 46.0212 -3.47185
158 1 -8.51071 -1.0921 -1.91908 -3.44701
159 1 -10.2252 0.521586 -1.87139 -3.44208
160 1 -6.73656 -0.759176 46.0581 -3.47592
161 1 -5.18393 1.20579 46.1175 -3.51025
162 1 -5.19073 -0.967436 -1.78654 -3.45869
163 1 -6.96836 0.924749 -1.64991 -3.50828
164 1 -3.60426 -0.714663 46.0086 -3.46717
165 1 -1.94072 1.19196 46.2353 -3.485
166 1 -1.86036 -0.843971 -1.76839 -3.53329
167 1 -3.70592 1.01028 -1.6971 -3.50442
168 1 -0.263676 -0.477372 46.0708 -3.48799
169 1 1.53166 1.12025 46.4887 -3.44273
170 1 1.57726 -0.768967 -1.74727 -3.489
171 1 -0.209446 0.992378 -1.50424 -3.49867
172 1 3.38636 -0.596118 46.0679 -3.48473
173 1 5.19483 1.01095 46.3974 -3.48994
174 1 4.96739 -0.858769 -1.63122 -3.42394
175 1 3.23546 0.976638 -1.5441 -3.50536
176 1 6.98164 -0.658403 46.2512 -3.45155
177 1 8.51261 1.07404 46.4628 -3.46082
178 1 8.54213 -0.615338 -1.21674 -3.41283
179 1 6.71224 0.918259 -1.35294 -3.48485
180 1 10.3293 -0.538809 46.1793 -3.45814
181 1 12.1263 1.12909 46.4177 -3.49306
182 1 11.9764 -0.679468 -1.48461 -3.47245
183 1 10.2976 1.06885 -1.3905 -3.46456
184 1 13.9304 -0.458868 -3.22811 -3.48792
185 1 15.8909 1.38978 46.3807 -3.15812
186 1 15.5893 -0.752927 -1.28643 -3.1607
187 1 13.9868 1.17108 -1.29558 -3.49712
188 1 17.2331 -0.683911 -3.09475 -2.56999
189 1 -15.2215 4.98486 45.742 -3.03516
190 1 -15.639 3.38956 -2.12569 -2.93627
191 1 -13.6464 3.23183 45.7542 -3.362
192 1 -11.6601 4.8857 45.9744 -3.49232
193 1 -11.4587 2.77313 -1.75373 -3.49155
194 1 -13.3807 4.52915 -1.98595 -3.48908
195 1 -9.86523 3.01461 45.8483 -3.47711
196 1 -8.38815 5.10973 46.1565 -3.48793
197 1 -8.83655 2.51578 -1.62908 -3.48124
198 1 -9.92034 4.8074 -1.81482 -3.47171
199 1 -7.13864 2.82331 46.2012 -3.48117
200 1 -5.47318 4.56384 46.3772 -3.46904
201 1 -5.39655 2.78264 -1.65754 -3.48022
202 1 -7.30701 4.39609 -1.32599 -3.4751
203 1 -3.48843 3.04772 46.2511 -3.477
204 1 -1.81953 4.8443 46.5082 -3.52456
205 1 -1.88229 2.83242 -1.5958 -3.50927
206 1 -3.70723 4.61864 -1.40458 -3.52742
207 1 -0.0870596 2.88269 46.3635 -3.47615
208 1 1.55784 4.76802 -3.08668 -3.53057
209 1 1.47936 2.79533 -1.27556 -3.51348
210 1 -0.264037 4.67043 -1.32713 -3.48428
211 1 3.24997 2.90762 -3.18868 -3.5039
212 1 4.98015 4.82616 46.5215 -3.46463
213 1 5.07303 2.72078 -1.47162 -3.47415
214 1 3.3278 4.51172 -1.23802 -3.50682
215 1 6.8049 3.00459 46.6471 -3.50234
216 1 8.59801 4.74947 -3.0203 -3.50831
217 1 8.54536 2.72226 -1.25729 -3.50915
218 1 6.84679 4.60926 -1.11233 -3.51407
219 1 10.212 2.86853 46.5763 -3.51162
220 1 11.935 4.65086 -3.05329 -3.5018
221 1 12.1109 2.71181 -1.25358 -3.50677
222 1 10.1904 4.49381 -1.07267 -3.50378
223 1 13.9601 2.96596 -3.21298 -3.45455
224 1 15.6817 4.52217 -2.89096 -2.97018
225 1 15.6677 2.92823 -1.08213 -3.07025
226 1 13.8517 4.56984 -1.09744 -3.42151
227 1 -14.8832 6.57301 -1.77445 -2.89977
228 1 -13.3543 6.64348 46.2005 -3.41418
229 1 -11.7287 8.62227 46.3678 -3.43267
230 1 -11.7576 6.63157 -1.6612 -3.51266
231 1 -13.4348 8.49062 -1.56516 -3.14662
232 1 -10.004 6.93903 46.308 -3.46085
233 1 -8.35731 8.7144 46.4035 -3.48245
234 1 -8.31689 6.71195 -1.70261 -3.48324
235 1 -10.1059 8.49275 -1.51362 -3.50445
236 1 -6.52208 6.95428 46.2989 -3.51907
237 1 -4.78039 8.88767 46.4836 -3.45882
238 1 -5.62904 6.27724 -1.22006 -3.49653
239 1 -6.67658 8.55635 -1.51096 -3.47996
240 1 -3.87574 6.55953 -3.12645 -3.5352
241 1 -2.03987 8.38401 -3.15405 -3.52739
242 1 -1.95043 6.52136 -1.28817 -3.50101
243 1 -3.75124 8.11495 -1.13083 -3.48358
244 1 -0.0903181 6.78878 -3.13012 -3.50719
245 1 1.69641 8.53708 -2.99315 -3.50251
246 1 1.51574 6.40091 -1.13056 -3.51852
247 1 -0.214603 8.24232 -1.16642 -3.46566
248 1 3.33196 6.57689 -2.99473 -3.50637
249 1 5.18228 8.43194 -2.80964 -3.52453
250 1 4.88873 6.51525 -1.05526 -3.4925
251 1 3.2691 8.28699 -1.02308 -3.47176
252 1 6.79967 6.46992 -2.8557 -3.5049
253 1 8.63603 8.10864 -3.04652 -3.4394
254 1 8.6271 6.33464 -0.956115 -3.46336
255 1 6.99302 8.15228 -0.916162 -3.52897
256 1 10.3512 6.42493 -2.94234 -3.45507
257 1 12.2048 8.15821 -2.59425 -3.45572
258 1 12.0229 6.24564 -0.927189 -3.5217
259 1 10.2899 8.17049 -0.752898 -3.48942
260 1 13.9119 6.40152 -2.79729 -3.38648
261 1 15.5956 6.11064 -0.838281 -2.73222
262 1 13.9758 7.98622 -0.62884 -3.11939
263 1 -14.1214 9.23224 45.9084 -2.82506
264 1 -12.4363 10.8931 45.9382 -2.85488
265 1 -11.7564 10.4168 -1.29502 -3.27297
266 1 -10.0357 10.5715 -3.21929 -3.46259
267 1 -8.40833 12.4979 -2.86082 -3.35874
268 1 -8.4126 10.4171 -1.1467 -3.52063
269 1 -10.1488 12.2945 -0.990483 -3.18502
270 1 -6.6756 10.5851 -3.10363 -3.50472
271 1 -4.79078 12.4857 -3.0644 -3.47897
272 1 -4.57013 10.4562 -1.29395 -3.44758
273 1 -6.46373 12.3022 -1.11579 -3.49724
274 1 -2.97715 10.6618 -3.05331 -3.43554
275 1 -1.15229 12.4616 -3.02505 -3.44941
276 1 -1.97981 9.83545 -0.96539 -3.4936
277 1 -2.81552 12.2741 -1.14513 -3.51948
278 1 -0.249109 10.0913 -2.80606 -3.49713
279 1 1.47623 11.8748 -2.66084 -3.53378
280 1 1.56402 10.0242 -0.836685 -3.48651
281 1 -0.30931 11.7863 -0.866555 -3.52493
282 1 3.48016 10.2301 -2.82574 -3.49646
283 1 5.38638 11.8982 -2.50545 -3.49406
284 1 5.08994 10.0064 -0.837855 -3.51385
285 1 3.34135 11.7836 -0.70165 -3.46834
286 1 7.16907 10.1316 -2.70894 -3.51084
287 1 9.09739 11.8137 -2.69068 -3.3888
288 1 8.72553 10.0215 -0.751401 -3.42518
289 1 7.02702 11.6898 -0.695773 -3.46173
290 1 10.5061 9.87328 -2.55254 -3.47135
291 1 12.5256 11.3559 -2.57382 -2.86933
292 1 12.1963 9.6998 -0.638944 -3.32193
293 1 10.5786 11.5987 -0.696544 -3.2963
294 1 14.2026 9.49455 -2.67861 -2.70414
295 1 -10.8305 12.856 46.3799 -2.64533
296 1 -8.49886 14.0683 -0.736296 -2.92388
297 1 -6.44648 14.3827 -2.66039 -3.19029
298 1 -4.53892 16.1723 -2.63272 -2.78021
299 1 -4.52904 14.0162 -0.950827 -3.46142
300 1 -6.50964 15.769 -0.617985 -2.65431
301 1 -2.83988 14.231 -2.74488 -3.48035
302 1 -1.25531 16.1281 -2.80759 -3.13773
303 1 -0.897289 14.1442 -0.941299 -3.41634
304 1 -2.76653 15.9407 -0.751012 -3.04053
305 1 0.529067 14.1974 -2.82795 -3.44537
306 1 2.58573 15.9142 -2.91713 -3.11899
307 1 1.61911 13.5787 -0.752036 -3.45434
308 1 0.642374 16.0737 -1.22515 -3.0912
309 1 3.42954 13.5146 -2.42383 -3.48144
310 1 5.09795 15.3295 -2.45929 -3.09867
311 1 5.31133 13.497 -0.587088 -3.42035
312 1 3.35752 15.4573 -0.389978 -3.05697
313 1 7.21938 13.6538 -2.33991 -3.30205
314 1 8.93314 13.3076 -0.694707 -3.07723
315 1 6.84614 15.2479 -0.655424 -2.64834
316 1 11.0015 13.2905 -2.66558 -2.66139
317 1 0.71783 17.6135 46.484 -2.46731
318 1 -5.713 -14.1539 1.22224 -2.98472
319 1 -7.43031 -14.1711 3.03386 -2.74343
320 1 -2.3079 -14.4977 1.25633 -3.08581
321 1 -4.04293 -14.3658 3.25217 -2.99071
322 1 1.90537 -15.3706 -0.142753 -2.97651
323 1 3.87791 -15.8972 1.27591 -2.42424
324 1 0.0525682 -15.5453 1.52513 -2.63509
325 1 5.80901 -14.1851 1.97166 -3.08974
326 1 3.96123 -14.5537 3.9283 -3.01286
327 1 7.34252 -14.3657 3.89432 -2.67277
328 1 -12.6566 -10.4976 1.04807 -2.88322
329 1 -11.0213 -12.3582 0.995951 -2.73992
330 1 -9.26642 -10.751 1.0018 -3.40794
331 1 -9.41704 -12.7968 2.97276 -3.05147
332 1 -11.1099 -10.8689 3.01691 -3.31267
333 1 -7.74127 -12.5408 1.00982 -3.32393
334 1 -5.95411 -10.8575 1.28879 -3.4905
335 1 -5.7259 -12.5266 3.12397 -3.38534
336 1 -7.70361 -10.9481 2.98226 -3.51581
337 1 -4.0629 -12.5533 1.25797 -3.38694
338 1 -1.8348 -11.8675 1.9298 -3.40544
339 1 -1.73806 -14.0272 3.6081 -3.20497
340 1 -3.4371 -12.0093 3.82112 -3.48937
341 1 -0.130613 -13.3434 1.49918 -3.21981
342 1 1.91291 -12.9383 -0.337816 -3.29011
343 1 2.15569 -14.134 1.94266 -3.34275
344 1 -0.043807 -12.0812 3.8371 -3.46592
345 1 4.01578 -13.9622 0.0789999 -3.2612
346 1 5.76458 -12.1848 0.31252 -3.40959
347 1 5.54558 -12.6267 3.973 -3.45004
348 1 3.95659 -12.4456 2.16381 -3.44743
349 1 7.66122 -12.3888 2.29276 -3.35321
350 1 9.20446 -10.6175 2.25851 -3.38616
351 1 9.22871 -12.7481 4.29761 -3.02207
352 1 7.44317 -10.6851 4.1504 -3.47186
353 1 10.7483 -12.5232 2.15187 -2.70882
354 1 12.3173 -10.709 2.46265 -2.81857
355 1 10.7617 -10.9314 4.2817 -3.2336
356 1 -14.6282 -8.7984 1.05458 -2.72857
357 1 -12.7732 -7.10181 1.1005 -3.45441
358 1 -12.8668 -8.91702 2.83608 -3.31664
359 1 -14.6616 -7.22971 2.97399 -3.10293
360 1 -10.969 -8.85324 1.17481 -3.42396
361 1 -9.24416 -7.24758 1.2034 -3.41224
362 1 -9.39732 -9.10237 3.00221 -3.4665
363 1 -11.1041 -7.20407 3.06659 -3.51146
364 1 -7.62133 -8.92396 1.02799 -3.44412
365 1 -5.34328 -8.50874 1.87722 -3.4424
366 1 -5.21111 -10.2678 3.79561 -3.49802
367 1 -7.09922 -8.4618 3.71232 -3.50353
368 1 -3.59416 -10.2402 1.78612 -3.47978
369 1 -1.79466 -10.1091 -0.0209538 -3.36599
370 1 -1.691 -10.2359 3.85299 -3.47792
371 1 -3.38781 -8.48949 3.7951 -3.509
372 1 -0.22582 -11.6523 -0.353933 -3.38582
373 1 1.63137 -9.9894 -0.252576 -3.49459
374 1 1.71813 -11.7078 1.8471 -3.46076
375 1 -0.110199 -10.0721 1.98807 -3.4146
376 1 3.5187 -11.4115 -0.0860381 -3.32294
377 1 5.41925 -9.64194 -0.133584 -3.50329
378 1 5.68023 -10.5752 2.2031 -3.48485
379 1 3.31492 -9.91622 1.87819 -3.35301
380 1 7.81886 -10.6439 0.202717 -3.52826
381 1 9.35115 -8.59099 0.360627 -3.51697
382 1 9.26838 -9.05357 4.29336 -3.43142
383 1 7.4508 -8.92117 2.10457 -3.48029
384 1 10.8443 -8.67769 2.38269 -3.42143
385 1 12.5536 -6.95246 2.55099 -3.33898
386 1 12.4128 -8.91577 4.68838 -3.28344
387 1 10.7666 -7.20054 4.451 -3.42825
388 1 14.0524 -8.74939 2.5084 -2.63705
389 1 14.1265 -7.26711 4.90959 -2.99908
390 1 -16.352 -3.44565 1.13258 -3.00763
391 1 -16.3582 -5.32585 3.1086 -2.66188
392 1 -14.5858 -5.497 1.11766 -3.32645
393 1 -12.9042 -3.62752 1.24048 -3.50049
394 1 -12.8889 -5.39046 3.12072 -3.49165
395 1 -14.5921 -3.60396 2.97132 -3.40438
396 1 -11.0272 -5.45254 1.13744 -3.47199
397 1 -8.76675 -4.96408 2.02652 -3.44434
398 1 -8.63878 -6.49868 3.91362 -3.4606
399 1 -10.6782 -4.63197 3.83472 -3.40397
400 1 -6.90828 -6.49547 1.86551 -3.47357
401 1 -5.20511 -6.47488 -0.206677 -3.47874
402 1 -5.27294 -6.58907 3.62755 -3.43794
403 1 -6.93401 -4.74696 3.80808 -3.44166
404 1 -3.50176 -8.39071 -0.0824143 -3.50896
405 1 -1.83976 -6.51157 -0.0831927 -3.46671
406 1 -1.77093 -8.3881 1.9227 -3.48041
407 1 -3.61304 -6.75223 1.94284 -3.47984
408 1 -0.241808 -8.22368 -0.0789979 -3.46596
409 1 1.5457 -6.37467 0.054851 -3.52575
410 1 1.55015 -8.46754 1.79109 -3.41822
411 1 -0.0711497 -6.51126 1.85273 -3.50076
412 1 3.36642 -8.24428 -0.0535881 -3.49292
413 1 4.87814 -6.33583 0.112165 -3.47337
414 1 4.96056 -8.2031 1.95487 -3.44496
415 1 3.39052 -6.41209 2.042 -3.44073
416 1 6.96051 -7.7188 0.0628805 -3.39316
417 1 8.70941 -6.15238 0.0151828 -3.42428
418 1 9.22574 -6.91868 2.48998 -3.49345
419 1 6.60985 -6.34451 2.01106 -3.46601
420 1 11.1123 -6.69119 0.50399 -3.53565
421 1 12.8231 -4.90173 0.805584 -3.45449
422 1 12.4495 -5.3018 4.59352 -3.48044
423 1 11.0585 -5.03181 2.47924 -3.45592
424 1 14.1673 -5.16611 2.85469 -3.32687
425 1 15.85 -3.19301 3.03697 -2.98158
426 1 15.9273 -5.04376 4.82883 -2.67939
427 1 14.0988 -3.46169 4.86475 -3.43211
428 1 -16.6676 -0.32689 1.20495 -2.91105
429 1 -16.2754 -1.76275 3.03381 -2.97998
430 1 -14.5282 -1.83339 1.17564 -3.4132
431 1 -12.2564 -1.23354 1.8963 -3.51873
432 1 -12.3881 -3.00875 3.73664 -3.452
433 1 -14.0906 -1.19307 3.64636 -3.49088
434 1 -10.5581 -3.05255 2.02614 -3.50607
435 1 -8.67316 -3.05204 -0.0449183 -3.44764
436 1 -8.79721 -3.05632 3.97353 -3.49883
437 1 -10.6096 -1.31724 3.98818 -3.49597
438 1 -6.86139 -4.79761 -0.247103 -3.43373
439 1 -5.30789 -2.98753 0.2145 -3.45495
440 1 -5.25262 -4.72514 1.82846 -3.4574
441 1 -7.09071 -3.1433 1.98735 -3.47656
442 1 -3.4666 -4.6541 -0.0736295 -3.4979
443 1 -1.80493 -2.71732 -0.0238789 -3.48268
444 1 -1.93002 -4.80323 1.87025 -3.49448
445 1 -3.43164 -2.90568 1.95171 -3.47886
446 1 -0.239092 -4.54778 -0.0427507 -3.49829
447 1 1.45788 -2.71503 0.154355 -3.47759
448 1 1.62844 -4.66119 2.10621 -3.48015
449 1 -0.102857 -2.97544 2.17177 -3.45291
450 1 3.27415 -4.45895 0.134117 -3.46524
451 1 5.05878 -2.76297 0.174054 -3.50734
452 1 4.97005 -4.62367 2.09222 -3.43481
453 1 3.47982 -2.79457 2.10329 -3.44535
454 1 6.88234 -4.57551 0.100268 -3.51684
455 1 8.49454 -2.67078 0.33565 -3.49285
456 1 8.48065 -4.60293 2.19113 -3.50299
457 1 6.73835 -2.7573 2.16812 -3.51511
458 1 10.2938 -4.25356 0.29176 -3.47333
459 1 12.0803 -2.4682 0.215552 -3.38938
460 1 12.659 -3.19162 3.01927 -3.40118
461 1 10.3392 -2.71251 2.2753 -3.47621
462 1 14.1601 -2.95249 1.18912 -3.24241
463 1 16.0059 -1.36214 1.17685 -3.0038
464 1 16.0289 -1.78238 5.10298 -3.05335
465 1 14.363 -1.48095 3.23415 -3.32369
466 1 -16.8151 1.91885 1.80952 -2.60927
467 1 -14.7643 3.02957 2.02875 -3.24062
468 1 -16.0707 0.557578 3.59081 -3.13155
469 1 -14.3127 0.569972 1.77389 -3.56532
470 1 -12.1845 0.602753 0.127378 -3.51013
471 1 -12.2308 0.535639 4.10808 -3.45251
472 1 -14.1576 2.05031 4.0967 -3.46414
473 1 -10.228 -1.24564 0.118028 -3.51154
474 1 -8.67797 0.740085 0.226086 -3.49039
475 1 -8.73704 -1.19313 2.15184 -3.48512
476 1 -10.481 0.49293 2.2115 -3.49876
477 1 -7.12335 -1.20947 0.232052 -3.49126
478 1 -5.30957 0.842124 0.339995 -3.51208
479 1 -5.37257 -1.08912 2.12524 -3.49663
480 1 -7.06846 0.657892 2.23926 -3.4917
481 1 -3.61242 -0.99237 0.221146 -3.49386
482 1 -1.97258 0.862912 0.229058 -3.4837
483 1 -1.84163 -1.13134 2.10988 -3.50647
484 1 -3.69813 0.638269 2.3219 -3.4992
485 1 -0.163113 -0.868197 0.267304 -3.4655
486 1 1.49062 0.867735 0.468808 -3.52081
487 1 1.34502 -1.00058 2.31383 -3.48654
488 1 -0.295258 0.889558 2.31422 -3.4816
489 1 3.21195 -1.01201 0.191153 -3.49884
490 1 4.9259 0.80124 0.489089 -3.47911
491 1 4.9889 -1.00713 2.3733 -3.41569
492 1 3.35417 0.806186 2.32566 -3.46831
493 1 6.74773 -0.883611 0.541704 -3.48772
494 1 8.54724 0.99148 0.70149 -3.47788
495 1 8.46003 -0.88258 2.37582 -3.52355
496 1 6.58086 0.778592 2.70569 -3.47867
497 1 10.3206 -0.848584 0.615202 -3.49868
498 1 12.0269 1.06001 0.656229 -3.47904
499 1 11.9336 -0.880573 2.41929 -3.48851
500 1 10.3489 0.908855 2.58677 -3.48034
501 1 13.6817 -0.686306 0.38566 -3.43639
502 1 15.4393 1.07705 0.782653 -3.23835
503 1 16.1373 0.137348 3.24953 -2.96528
504 1 13.6635 0.974902 2.70373 -3.53212
505 1 16.9832 0.967529 -1.27092 -2.55363
506 1 -14.9084 4.52241 0.00108221 -3.1114
507 1 -14.8238 4.5071 3.93797 -3.08658
508 1 -13.1557 2.87473 0.163648 -3.36887
509 1 -11.6338 4.66393 -0.0653809 -3.46117
510 1 -12.3639 2.18648 2.25488 -3.47626
511 1 -13.1589 4.82939 2.04203 -3.3779
512 1 -10.5106 2.38923 0.505118 -3.46802
513 1 -8.87659 4.22962 0.512679 -3.47035
514 1 -8.74046 2.41225 2.43287 -3.49101
515 1 -10.6729 4.11441 2.3956 -3.5535
516 1 -7.08582 2.5847 0.423646 -3.47107
517 1 -5.40516 4.33626 0.593298 -3.49029
518 1 -5.36931 2.42735 2.32133 -3.50314
519 1 -7.12819 4.14187 2.45838 -3.47415
520 1 -3.58994 2.67254 0.262599 -3.4992
521 1 -1.89325 4.6608 0.520522 -3.47871
522 1 -2.01285 2.6266 2.33332 -3.48878
523 1 -3.71203 4.31263 2.4876 -3.48341
524 1 -0.315676 2.68539 0.514233 -3.52945
525 1 1.53611 4.44405 0.534507 -3.48873
526 1 1.4693 2.61647 2.48565 -3.49961
527 1 -0.142905 4.37837 2.54146 -3.49891
528 1 3.22384 2.71461 0.565884 -3.50591
529 1 5.03543 4.45004 0.667788 -3.49411
530 1 4.86756 2.63958 2.5933 -3.4648
531 1 3.19123 4.39793 2.63648 -3.48961
532 1 6.66146 2.57352 0.636271 -3.51672
533 1 8.49074 4.3963 0.858532 -3.50824
534 1 8.39983 2.67781 2.57814 -3.52568
535 1 6.51499 4.40507 2.58704 -3.41686
536 1 10.2671 2.65788 0.706561 -3.46939
537 1 12.0551 4.45315 0.757289 -3.52143
538 1 11.9089 2.78885 2.79991 -3.45237
539 1 10.2353 4.46972 2.78636 -3.4901
540 1 13.8102 2.7386 0.809855 -3.41733
541 1 15.7285 4.16586 0.95282 -2.96449
542 1 15.6454 2.50897 2.88267 -3.11695
543 1 13.7591 4.34474 2.93342 -3.41898
544 1 -15.0568 6.17284 2.11381 -2.71294
545 1 -13.2744 6.63941 0.315637 -3.33174
546 1 -11.6935 8.42257 0.423316 -3.40713
547 1 -11.557 6.6052 2.15525 -3.43816
548 1 -13.5052 8.17304 2.50107 -3.11388
549 1 -9.97916 6.58511 0.321694 -3.51975
550 1 -8.21984 8.39738 0.505781 -3.48888
551 1 -8.88059 5.86678 2.62616 -3.51597
552 1 -9.81265 8.38436 2.38502 -3.47773
553 1 -7.29549 6.09229 0.54923 -3.49918
554 1 -5.62833 8.1114 0.723427 -3.51534
555 1 -5.50441 6.17025 2.48961 -3.52382
556 1 -7.34589 7.78563 2.67239 -3.4446
557 1 -3.78596 6.17309 0.688705 -3.4728
558 1 -2.19318 8.02114 0.90537 -3.44767
559 1 -1.86302 6.19096 2.71097 -3.52725
560 1 -3.80256 8.02854 2.61195 -3.44353
561 1 -0.174471 6.29635 0.661256 -3.4807
562 1 1.51723 8.07756 0.762467 -3.47496
563 1 1.38395 6.21864 2.61469 -3.46544
564 1 -0.147494 8.03371 2.5901 -3.43503
565 1 3.18532 6.20734 0.857893 -3.51154
566 1 5.07756 8.17025 0.847096 -3.50868
567 1 4.99264 6.08623 2.69667 -3.42094
568 1 3.39066 8.0385 2.79793 -3.54129
569 1 6.8165 6.28152 0.720327 -3.50888
570 1 8.56956 7.99594 1.14098 -3.47624
571 1 8.34099 6.16017 2.82589 -3.51907
572 1 6.63585 7.86729 2.87942 -3.49273
573 1 10.1449 6.18237 1.02854 -3.48478
574 1 12.1113 7.84428 1.0615 -3.47267
575 1 12.1277 6.05588 2.90517 -3.44885
576 1 10.4052 7.78976 3.12015 -3.5151
577 1 13.9738 6.08352 1.1026 -3.36381
578 1 15.6546 5.89646 2.90041 -2.6456
579 1 13.7848 7.78048 3.0539 -3.11123
580 1 -13.5144 9.95954 0.573551 -2.67716
581 1 -11.9557 11.9974 0.602222 -2.80226
582 1 -11.7547 10.159 2.56868 -3.34906
583 1 -10.0818 10.3744 0.675043 -3.46818
584 1 -8.36639 12.2168 0.807354 -3.43828
585 1 -8.24785 10.2728 2.34549 -3.5111
586 1 -10.1523 12.1006 2.61668 -3.30545
587 1 -6.42562 10.394 0.557512 -3.50594
588 1 -4.37231 12.2656 0.819884 -3.44023
589 1 -5.71332 9.50685 2.83035 -3.47402
590 1 -6.3661 11.9914 2.50656 -3.46974
591 1 -3.76322 9.80785 0.839428 -3.44496
592 1 -2.00166 11.6105 1.2129 -3.5063
593 1 -1.98387 9.64178 2.8738 -3.48426
594 1 -3.9041 11.2323 3.06709 -3.51263
595 1 -0.160175 9.87263 0.850526 -3.49947
596 1 1.55542 11.6659 1.00035 -3.45664
597 1 1.467 9.9062 2.82615 -3.44651
598 1 -0.244981 11.5273 3.04605 -3.50276
599 1 3.29064 9.9301 1.13637 -3.50733
600 1 5.17846 11.7015 1.16532 -3.51871
601 1 5.18024 9.91065 2.89913 -3.45611
602 1 3.21293 11.4951 3.03686 -3.4907
603 1 6.87751 9.81161 1.21922 -3.47641
604 1 8.81363 11.4935 1.16253 -3.41132
605 1 8.55944 9.66793 3.09877 -3.53455
606 1 6.84089 11.6945 2.99114 -3.45043
607 1 10.4029 9.66263 1.34618 -3.48543
608 1 12.0517 11.4395 1.37911 -2.87508
609 1 12.2438 9.68931 3.28808 -3.28588
610 1 10.3234 11.557 3.3009 -3.31709
611 1 13.765 9.60288 1.45984 -2.70831
612 1 -10.4124 13.8366 0.966064 -2.62493
613 1 -8.32515 13.7975 2.73848 -3.08749
614 1 -6.27279 13.7783 0.880969 -3.30438
615 1 -4.56106 15.7041 0.918296 -3.02726
616 1 -4.71042 13.7762 2.62407 -3.35301
617 1 -6.25255 15.7347 2.71744 -2.65145
618 1 -2.63383 14.0638 0.871731 -3.496
619 1 -0.766764 15.8025 0.931587 -2.98708
620 1 -2.24277 13.1377 3.14654 -3.49121
621 1 -2.80508 15.8508 2.6745 -3.01009
622 1 -0.257179 13.3506 1.15958 -3.42723
623 1 1.43025 15.1408 1.08286 -3.17826
624 1 1.4865 13.375 2.98823 -3.54348
625 1 -0.478934 14.8937 3.01353 -3.27215
626 1 3.15942 13.4001 1.08508 -3.42094
627 1 5.08748 15.1963 1.27664 -2.99295
628 1 5.05143 13.362 3.07965 -3.44833
629 1 3.35052 15.2948 3.04458 -3.10532
630 1 7.1586 13.6889 1.16407 -3.32516
631 1 8.55616 13.2694 3.34889 -3.08445
632 1 6.72461 15.0525 3.33964 -2.73074
633 1 10.2719 13.2784 1.35939 -2.69946
634 1 1.26081 16.62 3.03613 -2.63003
635 1 -5.89748 -14.4209 5.14139 -2.95652
636 1 -7.55066 -14.5248 6.94222 -2.68318
637 1 -0.995399 -14.7087 5.99758 -2.94447
638 1 -2.91587 -14.5684 8.12812 -2.96697
639 1 0.697919 -14.5082 4.08114 -3.08096
640 1 2.43811 -14.5928 6.05311 -3.03127
641 1 0.702781 -14.5652 7.94659 -3.06397
642 1 5.51549 -14.6266 5.81405 -2.92638
643 1 4.27437 -14.6166 8.13403 -3.05329
644 1 7.03403 -14.725 8.02575 -2.71019
645 1 -12.8773 -10.7319 4.80254 -2.87205
646 1 -11.159 -12.478 4.77997 -2.70966
647 1 -9.3818 -10.8179 5.00825 -3.41419
648 1 -9.38833 -12.6908 6.79682 -3.12318
649 1 -11.2634 -10.6684 6.73282 -3.35908
650 1 -7.74237 -12.7727 4.9786 -3.31796
651 1 -5.24119 -12.0508 5.6614 -3.51489
652 1 -5.29265 -13.8491 7.60205 -3.23108
653 1 -7.03877 -12.1663 7.55214 -3.45467
654 1 -3.52734 -14.111 5.71055 -3.17732
655 1 -1.72275 -12.192 5.75814 -3.50968
656 1 -1.03861 -12.954 7.99381 -3.42307
657 1 -3.52474 -12.1988 7.60409 -3.48511
658 1 0.834573 -12.7438 6.11652 -3.48323
659 1 2.50226 -12.7422 4.13841 -3.44263
660 1 2.47812 -12.8956 8.1058 -3.44846
661 1 0.572397 -11.0273 8.0636 -3.49161
662 1 4.07423 -12.6698 6.23984 -3.39872
663 1 5.62383 -11.0019 6.16985 -3.42989
664 1 5.74099 -12.6771 8.20808 -3.42129
665 1 3.95937 -11.0018 8.19847 -3.47168
666 1 7.40845 -12.9118 6.16816 -3.30782
667 1 9.05377 -10.7317 6.10594 -3.41628
668 1 8.81616 -12.9354 8.13495 -3.05927
669 1 7.36138 -10.9039 8.06783 -3.44748
670 1 10.5974 -12.6753 6.34206 -2.70847
671 1 12.3409 -10.8596 6.46547 -2.85547
672 1 10.57 -11.0077 8.26503 -3.31987
673 1 -14.5615 -8.92432 4.68394 -2.72574
674 1 -12.9639 -7.13527 4.88438 -3.46025
675 1 -13.0218 -8.86613 6.60587 -3.29729
676 1 -14.7852 -7.05333 6.72315 -3.08388
677 1 -11.1809 -8.97932 4.75512 -3.50016
678 1 -8.81471 -8.6151 5.68923 -3.4897
679 1 -8.82409 -10.3562 7.54801 -3.53719
680 1 -10.6868 -8.38192 7.37432 -3.50123
681 1 -7.09518 -10.4743 5.58152 -3.477
682 1 -5.15064 -8.63693 5.80487 -3.48001
683 1 -5.2897 -10.4567 7.57247 -3.49895
684 1 -6.93815 -8.55217 7.54103 -3.50449
685 1 -3.40869 -10.3438 5.75826 -3.49315
686 1 -1.88141 -8.38321 5.80297 -3.48471
687 1 -1.77506 -10.5082 7.65766 -3.48776
688 1 -3.56106 -8.67673 7.7366 -3.50449
689 1 -0.16681 -10.1592 5.8147 -3.4892
690 1 1.47714 -10.352 4.02039 -3.4647
691 1 2.26891 -10.8533 6.33134 -3.46038
692 1 -0.0684353 -8.41143 7.78173 -3.45209
693 1 3.95449 -10.7435 4.25187 -3.49677
694 1 5.69712 -8.98579 4.36764 -3.4628
695 1 5.67742 -8.97993 8.26586 -3.50756
696 1 3.92013 -8.97452 6.4264 -3.47007
697 1 7.4058 -8.94196 6.25079 -3.49197
698 1 9.23817 -7.10893 6.45113 -3.47198
699 1 9.07516 -9.10269 8.34308 -3.47167
700 1 7.49163 -7.10875 8.43496 -3.46992
701 1 10.6907 -9.01882 6.45508 -3.42033
702 1 12.3276 -7.2386 6.60135 -3.41192
703 1 12.3608 -9.25328 8.42929 -3.3289
704 1 10.786 -7.33911 8.50318 -3.49636
705 1 14.0863 -8.8865 6.62873 -2.70313
706 1 14.0956 -7.1809 8.41368 -3.12827
707 1 -16.4695 -3.41512 4.90899 -2.94723
708 1 -16.2894 -5.21611 6.92188 -2.70237
709 1 -14.5744 -5.20269 4.92619 -3.38122
710 1 -12.2604 -4.74332 5.71638 -3.46045
711 1 -12.4842 -6.65782 7.45078 -3.48085
712 1 -13.9704 -4.63157 7.45432 -3.43129
713 1 -10.5617 -6.63827 5.68715 -3.50375
714 1 -8.66748 -4.99592 5.83095 -3.48173
715 1 -8.70062 -6.81412 7.54091 -3.50338
716 1 -10.6232 -5.03029 7.52487 -3.5094
717 1 -6.92581 -6.76953 5.71114 -3.50497
718 1 -5.31754 -4.74279 5.71113 -3.50818
719 1 -5.22474 -6.71634 7.71684 -3.46341
720 1 -6.90898 -5.07968 7.72865 -3.47368
721 1 -3.57641 -6.6264 5.58732 -3.49892
722 1 -1.72563 -6.50751 3.73061 -3.44021
723 1 -1.94514 -6.78115 7.66112 -3.48433
724 1 -3.53401 -4.98565 7.96296 -3.4555
725 1 -0.129321 -8.2823 3.79186 -3.50593
726 1 1.62688 -6.58482 3.90948 -3.50522
727 1 1.62599 -8.40804 5.75978 -3.51705
728 1 -0.12705 -6.55867 5.847 -3.52892
729 1 3.23625 -8.39072 3.78764 -3.47006
730 1 4.83293 -6.58291 3.98032 -3.47177
731 1 5.57884 -7.22561 6.46992 -3.43271
732 1 3.30836 -6.57826 5.95343 -3.43638
733 1 7.39946 -7.27493 4.36227 -3.50221
734 1 9.10055 -5.41254 4.58278 -3.47692
735 1 9.13927 -5.44251 8.42672 -3.44063
736 1 7.3464 -5.55035 6.36821 -3.46716
737 1 10.8535 -5.31225 6.51615 -3.47857
738 1 12.5433 -3.38821 6.81121 -3.45449
739 1 12.4212 -5.33549 8.64517 -3.5093