ITEM: TIMESTEP
176000
ITEM: NUMBER OF ATOMS
3804
ITEM: BOX BOUNDS ss ss pp
-1.7710547666518575e+01 1.8104771993968718e+01
-1.7693629651658899e+01 1.6564457384336666e+01
-3.8174399999999999e+00 4.7197440000000000e+01
ITEM: ATOMS id type x y z c_peratom
1 1 -5.63579 -15.0208 -3.14432 -3.00065
2 1 -7.32758 -15.1134 -1.25328 -2.72931
3 1 -2.32856 -15.0824 -3.19031 -2.98736
4 1 -3.81696 -15.0526 -1.24914 -2.87668
5 1 0.0133412 -15.6398 -2.85566 -2.7087
6 1 1.75682 -15.5523 46.343 -2.78793
7 1 0.152332 -14.2022 -0.747486 -3.17005
8 1 6.16006 -14.2756 46.9868 -2.79411
9 1 4.25976 -14.5967 -2.15852 -2.95766
10 1 6.66863 -13.576 0.255106 -2.84175
11 1 -12.7073 -11.5872 -2.80182 -2.77739
12 1 -10.9288 -13.0317 -3.23094 -2.70574
13 1 -9.14216 -11.3618 -2.91081 -3.47097
14 1 -9.20464 -13.318 -1.18571 -3.12999
15 1 -10.9508 -11.4308 -1.03835 -3.35153
16 1 -7.3264 -13.2848 -3.02073 -3.36714
17 1 -5.62856 -11.3656 -3.02902 -3.53192
18 1 -5.54644 -13.3898 -1.25738 -3.43695
19 1 -7.48054 -11.6433 -1.14379 -3.44695
20 1 -3.93616 -13.2096 -3.10921 -3.47104
21 1 -2.19952 -13.1953 46.0086 -3.47715
22 1 -2.12531 -13.4132 -1.23701 -3.35392
23 1 -3.8044 -11.5704 -1.04808 -3.54318
24 1 -0.472154 -14.9358 45.721 -3.19543
25 1 1.26725 -13.0776 45.848 -3.48871
26 1 1.87743 -13.8426 -2.68064 -3.35259
27 1 -0.584102 -13.2125 -3.10966 -3.4546
28 1 3.74772 -13.765 46.4555 -3.31624
29 1 5.48723 -12.0816 46.4211 -3.47653
30 1 6.07403 -13.0095 -2.044 -3.14926
31 1 3.79702 -12.1405 -2.60021 -3.5262
32 1 8.0677 -12.6227 46.7802 -3.09582
33 1 9.88604 -10.8322 46.9534 -3.209
34 1 8.70658 -11.8429 0.207913 -2.95032
35 1 7.79324 -11.2617 -2.09016 -3.34907
36 1 10.2628 -11.587 -1.7428 -2.7223
37 1 12.0668 -9.90232 -1.63409 -2.82841
38 1 10.5663 -10.1202 0.443992 -3.19245
39 1 -14.2425 -9.8509 -2.86112 -2.75463
40 1 -12.6759 -7.9875 -2.7628 -3.43657
41 1 -12.8442 -9.69444 -0.949749 -3.32627
42 1 -14.5455 -7.9356 -0.546822 -3.15872
43 1 -11.0127 -9.71282 -2.82482 -3.50846
44 1 -9.13921 -7.89988 -2.75884 -3.52814
45 1 -9.1062 -9.79697 -0.995086 -3.50571
46 1 -10.8802 -8.00822 -0.874453 -3.54907
47 1 -7.37604 -9.58803 -2.82429 -3.48031
48 1 -5.60941 -9.365 46.3091 -3.5176
49 1 -5.70566 -9.81954 -1.06861 -3.51279
50 1 -7.43593 -7.89717 -0.86782 -3.50459
51 1 -3.80864 -11.1754 46.1604 -3.49445
52 1 -2.15273 -9.40817 46.1119 -3.49646
53 1 -2.17031 -11.3623 -2.97387 -3.49332
54 1 -3.794 -9.4857 -2.97282 -3.48204
55 1 -0.549152 -11.3031 46.0222 -3.51881
56 1 1.18884 -9.53535 46.0825 -3.48439
57 1 1.32421 -11.5269 -3.21884 -3.4861
58 1 -0.437716 -9.62812 -2.98949 -3.5081
59 1 2.98677 -11.2375 45.9757 -3.48759
60 1 4.82243 -9.51729 46.1123 -3.48919
61 1 5.55219 -10.3813 -2.76366 -3.45437
62 1 3.04574 -9.70543 -3.05028 -3.50419
63 1 7.31858 -10.2708 46.4888 -3.48917
64 1 9.05733 -8.5242 46.6658 -3.49882
65 1 9.52012 -9.35779 -1.91529 -3.40653
66 1 7.35495 -8.71602 -2.42947 -3.4645
67 1 11.404 -8.9847 -3.7831 -3.22336
68 1 13.3435 -7.39709 -3.68293 -3.22369
69 1 12.1364 -8.24767 0.700806 -3.21444
70 1 11.383 -7.55533 -1.66193 -3.46985
71 1 13.7447 -8.16579 -1.33903 -2.69482
72 1 13.8135 -6.57566 0.760651 -3.09873
73 1 -16.2938 -4.41171 -2.31659 -2.68679
74 1 -16.3208 -6.22207 -0.661421 -2.78884
75 1 -14.4675 -6.1128 -2.4646 -3.29562
76 1 -12.7416 -4.32793 -2.50729 -3.47933
77 1 -12.6777 -6.19733 -0.628429 -3.46997
78 1 -14.4109 -4.59834 -0.395608 -3.43651
79 1 -11.1298 -6.08753 -2.64619 -3.48523
80 1 -9.24083 -5.97473 46.4385 -3.5149
81 1 -9.14951 -6.16572 -0.6029 -3.45829
82 1 -11.0026 -4.48026 -0.617239 -3.50514
83 1 -7.37772 -7.62071 46.2647 -3.47214
84 1 -5.65883 -5.96094 46.3874 -3.48607
85 1 -5.64687 -7.84279 -2.6824 -3.50277
86 1 -7.39716 -6.18732 -2.63773 -3.41657
87 1 -3.8787 -7.61077 46.3173 -3.48148
88 1 -2.12229 -5.90305 46.4069 -3.5008
89 1 -2.06956 -7.848 -2.70353 -3.44257
90 1 -3.80639 -6.11978 -2.64736 -3.53285
91 1 -0.338682 -7.67544 46.2589 -3.49295
92 1 1.33833 -5.91789 46.5077 -3.502
93 1 1.38881 -7.96327 -2.89301 -3.50707
94 1 -0.502245 -6.03519 -2.8072 -3.45878
95 1 3.11767 -7.67853 46.1934 -3.52264
96 1 4.89845 -5.99416 46.3918 -3.49777
97 1 4.8469 -7.94076 -2.87138 -3.52205
98 1 3.15684 -6.02668 -2.61118 -3.50197
99 1 6.56469 -7.79078 46.2237 -3.52305
100 1 8.51705 -5.98791 46.3318 -3.51295
101 1 9.09319 -6.76569 -2.31119 -3.49107
102 1 6.75533 -6.30948 -2.81203 -3.49729
103 1 10.8616 -6.70718 46.8185 -3.49666
104 1 12.6529 -4.85644 47.0042 -3.52398
105 1 13.3297 -5.76764 -1.63404 -3.36881
106 1 10.8284 -5.11641 -2.1278 -3.50669
107 1 15.0776 -5.44344 -3.59839 -3.11522
108 1 16.7311 -3.5434 -3.33127 -2.80842
109 1 15.4743 -4.78048 1.22256 -2.65998
110 1 15.0315 -3.87683 -1.47599 -3.20924
111 1 -15.267 -0.26383 -2.75068 -3.09338
112 1 -16.1645 -2.94097 -0.251133 -2.89167
113 1 -14.5886 -2.66027 -2.35634 -3.33879
114 1 -12.8457 -2.59486 46.7085 -3.48821
115 1 -12.7458 -2.70983 -0.462676 -3.52344
116 1 -14.6345 -1.05371 -0.177936 -3.31136
117 1 -11.0462 -4.15807 46.5345 -3.4227
118 1 -9.33771 -2.4179 46.7112 -3.44878
119 1 -9.0837 -4.61432 -2.53573 -3.44416
120 1 -10.7926 -2.56591 -2.42597 -3.50059
121 1 -7.41436 -4.17986 46.6346 -3.51467
122 1 -5.63774 -2.37968 46.8396 -3.51024
123 1 -5.68081 -4.41318 -2.4433 -3.53456
124 1 -7.60327 -2.47326 -2.3974 -3.48367
125 1 -3.92341 -4.12317 46.6585 -3.50886
126 1 -2.18279 -2.49569 46.6681 -3.48681
127 1 -2.17585 -4.29146 -2.49889 -3.49582
128 1 -3.90071 -2.411 -2.40675 -3.50454
129 1 -0.416556 -4.12053 46.4123 -3.48077
130 1 1.43404 -2.47375 46.6927 -3.5096
131 1 1.26005 -4.39361 -2.5029 -3.49022
132 1 -0.35231 -2.46664 -2.42817 -3.54361
133 1 3.2141 -4.19343 46.6532 -3.50734
134 1 5.10028 -2.50666 46.7998 -3.48092
135 1 5.09238 -4.40051 -2.4532 -3.49727
136 1 3.3031 -2.62846 -2.39445 -3.52816
137 1 6.71506 -4.32088 46.6173 -3.4697
138 1 8.51335 -2.38675 46.6004 -3.48056
139 1 8.48287 -4.37256 -2.71016 -3.49822
140 1 6.77194 -2.59516 -2.44704 -3.46644
141 1 10.2477 -4.2163 46.5062 -3.51925
142 1 12.1343 -2.45754 46.5366 -3.48608
143 1 12.612 -3.26004 -2.01111 -3.52863
144 1 10.2231 -2.55374 -2.56016 -3.50734
145 1 14.4834 -2.96328 -3.836 -3.47096
146 1 16.3254 -1.09961 -3.62603 -3.05813
147 1 16.8908 -2.27898 -1.09304 -2.68063
148 1 14.5506 -1.3219 -1.65164 -3.46615
149 1 -17.079 1.84594 40.9907 -2.64643
150 1 -15.7662 0.595076 45.7323 -2.93452
151 1 -15.2763 1.44773 -0.693047 -3.19
152 1 -13.4206 -0.188993 46.3818 -3.47513
153 1 -11.6129 1.66183 46.4844 -3.50055
154 1 -12.8185 -0.885104 -2.29049 -3.51075
155 1 -13.3496 1.52397 -2.58796 -3.49073
156 1 -11.0396 -0.679471 46.9142 -3.49618
157 1 -9.30077 1.1048 46.9617 -3.49014
158 1 -9.18368 -0.696925 -2.25906 -3.46155
159 1 -11.0161 0.908067 -2.01688 -3.50652
160 1 -7.47553 -0.519835 46.8877 -3.48358
161 1 -5.62426 1.02782 46.9358 -3.49285
162 1 -5.73997 -0.633516 -2.25276 -3.47406
163 1 -7.37734 1.04432 -2.20538 -3.4707
164 1 -3.82072 -0.670306 46.8276 -3.50185
165 1 -2.04171 1.02177 46.8864 -3.46643
166 1 -2.16785 -0.648894 -2.19814 -3.47199
167 1 -3.86875 0.979799 -2.20043 -3.48415
168 1 -0.345945 -0.649081 46.8424 -3.49756
169 1 1.46068 1.0787 46.8961 -3.52882
170 1 1.51433 -0.741779 -2.19355 -3.47735
171 1 -0.270954 0.912134 -2.15631 -3.5006
172 1 3.18196 -0.769103 46.769 -3.50982
173 1 4.91711 1.21806 46.7614 -3.50711
174 1 5.16027 -0.739898 -2.43794 -3.52497
175 1 3.25552 1.03887 -2.23415 -3.51263
176 1 6.78849 -0.588012 46.5743 -3.50052
177 1 8.47711 1.13521 46.8091 -3.47363
178 1 8.39825 -0.66443 -2.48082 -3.48262
179 1 6.7628 1.15155 -2.20608 -3.43745
180 1 10.1712 -0.717303 46.8047 -3.45762
181 1 11.9055 1.04095 47.0209 -3.48276
182 1 12.0761 -0.803037 -2.2928 -3.5197
183 1 10.205 1.05092 -2.07029 -3.48672
184 1 13.7504 -0.592758 46.8887 -3.43901
185 1 15.4495 1.00945 46.9679 -3.22647
186 1 16.238 0.462288 -1.53327 -3.11332
187 1 13.8858 1.0333 -2.08446 -3.49055
188 1 17.2985 1.32679 45.016 -2.65807
189 1 -14.7015 4.57342 45.5762 -2.99215
190 1 -15.7813 2.26505 -2.98141 -2.7709
191 1 -13.988 2.19667 46.01 -3.36641
192 1 -12.2325 4.12426 46.1778 -3.50304
193 1 -11.4862 3.41275 -2.47325 -3.46282
194 1 -14.0623 3.83434 -2.9443 -3.31268
195 1 -9.85954 3.54724 46.4545 -3.52111
196 1 -7.92831 5.29249 46.7054 -3.50784
197 1 -9.22384 2.73163 -2.01696 -3.51563
198 1 -9.74688 5.20037 -2.40316 -3.49825
199 1 -7.37464 2.94098 47.112 -3.52594
200 1 -5.56049 4.65258 -3.74128 -3.49826
201 1 -5.56131 2.72099 -2.04229 -3.52412
202 1 -7.31029 4.50356 -1.81506 -3.4987
203 1 -3.77185 2.79647 46.9971 -3.51546
204 1 -2.15022 4.73711 47.1705 -3.51978
205 1 -1.98526 2.75399 -2.09237 -3.50872
206 1 -3.79061 4.50973 -1.75392 -3.49441
207 1 -0.351119 2.87227 47.1101 -3.53556
208 1 1.44515 4.70904 -3.70714 -3.49387
209 1 1.49116 2.75775 -2.02904 -3.52548
210 1 -0.324139 4.51707 -1.89728 -3.48973
211 1 3.18885 2.9932 47.0449 -3.50048
212 1 5.02025 4.76284 47.1185 -3.48257
213 1 5.02979 2.74096 -2.18232 -3.47988
214 1 3.32134 4.59689 -1.87309 -3.54434
215 1 6.76559 2.82449 46.9017 -3.48956
216 1 8.44924 4.68383 -3.78811 -3.51925
217 1 8.49878 2.82934 -1.97615 -3.47653
218 1 6.7646 4.53099 -1.80977 -3.46157
219 1 10.3044 2.82226 47.2051 -3.49527
220 1 12.0956 4.70243 47.1021 -3.46983
221 1 12.0912 2.64617 -1.99029 -3.4704
222 1 10.4187 4.48082 -1.85099 -3.53297
223 1 13.9139 2.96369 -3.72049 -3.51429
224 1 15.9289 4.44899 46.9822 -2.99604
225 1 15.6732 2.97165 -1.94944 -3.26907
226 1 13.7752 4.42627 -1.77865 -3.37083
227 1 -14.4834 6.27276 -3.3821 -2.91127
228 1 -12.8948 6.42783 45.7716 -3.43489
229 1 -11.1085 8.24828 45.7627 -3.46719
230 1 -12.1644 5.62491 -2.83989 -3.43871
231 1 -12.8572 8.21425 -3.32122 -3.14327
232 1 -10.3556 5.99763 46.1982 -3.47999
233 1 -8.58379 7.61978 46.305 -3.47711
234 1 -7.98618 6.85872 -2.24617 -3.50102
235 1 -10.4311 7.65787 -2.81496 -3.52229
236 1 -6.20869 7.10857 46.9172 -3.4921
237 1 -4.48173 8.88978 47.0769 -3.49893
238 1 -5.58188 6.14452 -1.7282 -3.47177
239 1 -6.31893 8.72946 -2.12036 -3.48703
240 1 -3.9767 6.47731 -3.59172 -3.46309
241 1 -1.92572 8.23493 -3.59548 -3.50163
242 1 -1.98905 6.29321 -1.74054 -3.50974
243 1 -3.79666 8.12387 -1.60351 -3.53313
244 1 -0.276858 6.43333 -3.52917 -3.48027
245 1 1.60454 8.20966 -3.4915 -3.42013
246 1 1.47421 6.23147 -1.66725 -3.49596
247 1 -0.186824 7.97928 -1.52295 -3.46536
248 1 3.18944 6.51573 -3.61632 -3.48109
249 1 4.9114 8.30179 -3.40268 -3.45619
250 1 5.09868 6.32082 -1.73699 -3.47916
251 1 3.31329 7.93803 -1.55989 -3.5038
252 1 6.69567 6.48149 -3.72892 -3.48713
253 1 8.53137 8.20906 -3.60894 -3.52388
254 1 8.48337 6.42352 -1.8567 -3.50396
255 1 6.76884 8.23565 -1.67815 -3.45443
256 1 10.2906 6.39637 -3.81686 -3.49901
257 1 12.1408 8.12261 -3.45056 -3.48367
258 1 12.227 6.30346 -1.79855 -3.45654
259 1 10.4437 7.92833 -1.48309 -3.48784
260 1 13.972 6.22939 -3.67665 -3.37098
261 1 15.692 5.79068 -2.00484 -2.7605
262 1 14.0332 8.05887 -1.64973 -3.06091
263 1 -13.4764 8.97387 45.4166 -2.8592
264 1 -11.4376 10.6307 45.2875 -2.8928
265 1 -11.0741 10.0913 -3.33278 -3.25033
266 1 -9.20239 9.91385 45.7974 -3.41664
267 1 -7.50819 12.012 45.9268 -3.26701
268 1 -8.58259 9.25467 -2.68484 -3.46889
269 1 -9.0423 11.6486 -3.36461 -3.23338
270 1 -6.81276 9.55603 46.5866 -3.49189
271 1 -4.94521 11.3621 46.2953 -3.47691
272 1 -4.35671 10.5435 -2.01186 -3.45074
273 1 -6.55506 11.1763 -2.65073 -3.44342
274 1 -2.71493 10.7619 47.1995 -3.46826
275 1 -0.908255 12.3646 -3.67443 -3.48658
276 1 -1.89889 9.83313 -1.60692 -3.53779
277 1 -2.47099 12.4134 -1.7138 -3.47715
278 1 -0.175218 10.0022 -3.46166 -3.47935
279 1 1.59619 11.6322 -3.43927 -3.44358
280 1 1.40513 9.90926 -1.58323 -3.49141
281 1 -0.215923 11.6874 -1.32929 -3.45625
282 1 3.15585 9.87395 -3.35094 -3.38176
283 1 5.07421 11.8238 -3.21463 -3.41594
284 1 5.00744 9.83688 -1.4563 -3.49931
285 1 3.21653 11.6462 -1.52366 -3.46586
286 1 6.70298 9.9727 -3.44889 -3.45914
287 1 8.53618 11.4487 -3.34649 -3.4214
288 1 8.57742 9.78112 -1.58627 -3.48848
289 1 6.81842 11.5029 -1.29257 -3.51707
290 1 10.3508 9.91322 -3.42508 -3.47558
291 1 12.202 11.4422 -3.24212 -2.86404
292 1 12.2706 9.73582 -1.40067 -3.32342
293 1 10.4649 11.3587 -1.29334 -3.3073
294 1 13.8992 9.72117 -3.32256 -2.68897
295 1 -9.71107 12.4503 45.4131 -2.70874
296 1 -7.33396 13.5314 -3.00062 -3.0273
297 1 -5.5284 13.6429 46.1833 -3.1609
298 1 -3.83998 15.3222 46.143 -2.82103
299 1 -4.92093 12.9033 -2.48021 -3.41781
300 1 -5.4948 15.1243 -2.95027 -2.70749
301 1 -3.2165 13.1348 46.7983 -3.40958
302 1 -1.29592 14.8439 46.7149 -3.22234
303 1 -0.616753 14.1162 -1.66096 -3.33361
304 1 -3.00539 14.7498 -2.35364 -3.11921
305 1 1.0112 14.0304 -3.81431 -3.4477
306 1 2.86325 15.8675 -3.48899 -3.09249
307 1 1.66318 13.4445 -1.40002 -3.48718
308 1 1.00012 15.9253 -1.78565 -2.91191
309 1 3.36788 13.444 -3.30017 -3.45442
310 1 5.12856 15.2776 -3.08555 -3.09261
311 1 5.04051 13.219 -1.26598 -3.45798
312 1 3.56207 15.1872 -1.19773 -3.10821
313 1 6.83979 13.3564 -3.11754 -3.35522
314 1 8.62516 13.1893 -1.31537 -3.12517
315 1 6.83112 15.0522 -1.14572 -2.71958
316 1 10.3289 13.1047 -3.07246 -2.77451
317 1 0.55596 16.3534 46.7386 -2.73384
318 1 -5.75241 -15.12 0.649638 -2.8729
319 1 -7.68816 -15.2032 2.37551 -2.50348
320 1 -1.6768 -14.1793 1.20788 -3.01182
321 1 -3.63864 -14.4909 3.09281 -2.8531
322 1 2.38939 -14.6353 -0.376147 -2.95288
323 1 4.68755 -15.107 0.585964 -2.55454
324 1 0.6281 -14.9391 1.61208 -2.67939
325 1 5.14288 -13.7811 2.55047 -2.93773
326 1 3.00929 -13.8691 4.20894 -2.88752
327 1 7.27031 -12.812 4.69483 -2.75811
328 1 -12.6768 -11.7014 0.869213 -2.84513
329 1 -10.9699 -13.4011 0.662184 -2.70895
330 1 -9.25995 -11.6035 0.898769 -3.47817
331 1 -9.32745 -13.5609 2.5147 -3.07359
332 1 -11.0163 -11.8182 2.71045 -3.34093
333 1 -7.39672 -13.2863 0.597746 -3.31189
334 1 -5.72847 -11.7436 0.661586 -3.44289
335 1 -5.82963 -13.523 2.6629 -3.34149
336 1 -7.50902 -11.8205 2.69624 -3.49718
337 1 -3.9705 -13.5225 0.789952 -3.32643
338 1 -2.07722 -11.8739 0.885586 -3.43066
339 1 -1.67926 -12.8315 3.30404 -3.35609
340 1 -3.90389 -12.0016 2.70875 -3.47988
341 1 0.177138 -12.4423 1.34379 -3.45668
342 1 1.96645 -12.1393 -0.573554 -3.45349
343 1 2.65912 -13.4518 1.68641 -3.36162
344 1 0.334573 -10.9514 3.28358 -3.47553
345 1 4.31949 -12.9365 -0.129542 -3.37603
346 1 6.14149 -11.2213 -0.22923 -3.45727
347 1 5.03048 -12.1294 4.3148 -3.29465
348 1 4.37374 -11.3723 1.93909 -3.50382
349 1 6.8379 -12.0802 2.27249 -3.22355
350 1 8.50346 -10.2132 2.41093 -3.33429
351 1 9.09901 -11.0629 4.98705 -3.09442
352 1 6.7637 -10.3553 4.24935 -3.48594
353 1 10.8927 -10.7082 3.05748 -2.69835
354 1 12.6734 -8.94917 3.19802 -2.84565
355 1 10.9226 -9.41066 5.20371 -3.21782
356 1 -14.538 -9.84095 1.15154 -2.68917
357 1 -12.7563 -8.1241 1.17309 -3.46504
358 1 -12.8065 -10.0034 2.92043 -3.34286
359 1 -14.573 -8.18928 3.08543 -3.11379
360 1 -11.0922 -9.89194 0.83504 -3.46393
361 1 -9.25048 -8.20301 1.10161 -3.53647
362 1 -9.26865 -9.995 2.8017 -3.51243
363 1 -11.0367 -8.27173 2.98049 -3.48481
364 1 -7.4453 -9.98855 0.899799 -3.51746
365 1 -5.49853 -8.11611 0.992344 -3.50184
366 1 -5.58935 -10.0646 2.76842 -3.51701
367 1 -7.34944 -8.23376 2.9433 -3.50907
368 1 -3.72321 -10.0203 0.979108 -3.48954
369 1 -2.05337 -9.77601 -0.882736 -3.45048
370 1 -2.06686 -10.2249 2.90143 -3.54412
371 1 -3.89273 -8.34272 3.12628 -3.49094
372 1 -0.36306 -11.4691 -1.10426 -3.50002
373 1 1.47155 -9.87276 -0.993233 -3.40491
374 1 2.03436 -10.5903 1.41114 -3.47674
375 1 -0.370102 -10.0793 1.01456 -3.49723
376 1 3.75782 -10.4905 -0.476454 -3.42527
377 1 5.47915 -8.84513 -0.606491 -3.46377
378 1 6.12734 -9.65326 1.80071 -3.52488
379 1 3.7421 -8.85764 1.32996 -3.49273
380 1 8.14511 -9.54184 0.0694607 -3.43583
381 1 9.72438 -7.55474 0.20219 -3.5024
382 1 8.68705 -8.76213 4.44576 -3.48413
383 1 7.94152 -7.75927 2.17324 -3.46069
384 1 10.2789 -8.49601 2.56231 -3.4083
385 1 12.0854 -6.64657 2.65536 -3.43173
386 1 12.7812 -7.46971 5.35605 -3.20717
387 1 10.41 -6.7643 4.60143 -3.50876
388 1 14.3826 -7.03463 3.35186 -2.73073
389 1 14.5802 -5.49002 5.28781 -3.04128
390 1 -16.3424 -4.58911 1.50234 -2.97237
391 1 -16.1749 -6.2092 3.51647 -2.75262
392 1 -14.4965 -6.32967 1.40047 -3.36562
393 1 -12.736 -4.55607 1.41472 -3.51025
394 1 -12.7159 -6.42084 3.15945 -3.49497
395 1 -14.4041 -4.59517 3.2911 -3.45852
396 1 -10.9463 -6.36069 1.22706 -3.53631
397 1 -9.1105 -4.66411 1.3797 -3.49512
398 1 -9.21836 -6.48049 3.11919 -3.49563
399 1 -10.8958 -4.79658 3.29569 -3.46529
400 1 -7.41704 -6.42296 1.11157 -3.50028
401 1 -5.51508 -6.22314 -0.703491 -3.50348
402 1 -5.60301 -6.58934 2.89606 -3.4509
403 1 -7.32679 -4.74044 3.08269 -3.5275
404 1 -3.788 -8.20995 -0.811009 -3.46312
405 1 -2.02443 -6.43375 -0.715993 -3.52023
406 1 -2.13418 -8.21171 1.24551 -3.49824
407 1 -3.78647 -6.37973 1.0477 -3.48689
408 1 -0.215328 -8.10825 -0.92744 -3.49371
409 1 1.35895 -6.25084 -0.843355 -3.49097
410 1 1.40834 -8.23685 1.01241 -3.49799
411 1 -0.26204 -6.34687 1.183 -3.45286
412 1 2.97408 -8.04092 -0.94169 -3.48018
413 1 4.96737 -6.4084 -0.868912 -3.52111
414 1 5.54535 -7.02928 1.62278 -3.46228
415 1 3.10348 -6.2701 1.13976 -3.51019
416 1 7.36613 -7.07696 -0.466738 -3.50864
417 1 9.19456 -5.17437 -0.182512 -3.48152
418 1 9.68741 -6.05752 2.34662 -3.49156
419 1 7.32522 -5.44066 1.71822 -3.48764
420 1 11.4899 -5.84275 0.276281 -3.47711
421 1 13.3168 -4.01205 0.434728 -3.44167
422 1 12.2124 -5.0946 4.71578 -3.51176
423 1 11.606 -4.1746 2.30079 -3.50783
424 1 13.8828 -4.83524 2.87386 -3.23539
425 1 15.7621 -3.20932 3.388 -2.95801
426 1 16.2898 -3.68768 5.75301 -2.641
427 1 13.8916 -3.01608 4.91751 -3.40432
428 1 -16.4526 -1.2114 1.79962 -2.97822
429 1 -16.3844 -3.11358 3.45694 -2.99948
430 1 -14.4222 -2.76995 1.5 -3.46117
431 1 -12.6026 -1.15629 1.45994 -3.4103
432 1 -12.62 -2.8133 3.31913 -3.54111
433 1 -14.6286 -1.22052 3.54264 -3.45452
434 1 -10.8595 -2.81636 1.39927 -3.52071
435 1 -8.9199 -2.68965 -0.444674 -3.4635
436 1 -9.21347 -3.12814 3.28905 -3.47648
437 1 -10.7132 -1.18527 3.5768 -3.51589
438 1 -7.3181 -4.54465 -0.541981 -3.48402
439 1 -5.70684 -2.60302 -0.435586 -3.52725
440 1 -5.64297 -4.56194 1.29606 -3.51336
441 1 -7.32061 -2.76922 1.46873 -3.46089
442 1 -3.78957 -4.44628 -0.65212 -3.51677
443 1 -2.20081 -2.58649 -0.595656 -3.48737
444 1 -1.97264 -4.53536 1.10129 -3.48749
445 1 -3.89226 -2.85934 1.48105 -3.47797
446 1 -0.420975 -4.38475 -0.712375 -3.49645
447 1 1.44295 -2.62457 -0.514875 -3.49738
448 1 1.34587 -4.69467 1.1077 -3.42785
449 1 -0.217371 -2.75219 1.30832 -3.52147
450 1 3.1853 -4.43716 -0.762479 -3.5049
451 1 5.10356 -2.78033 -0.438141 -3.49869
452 1 5.00305 -4.66002 1.17191 -3.48122
453 1 3.2025 -3.00054 1.28268 -3.53459
454 1 6.76831 -4.66116 -0.68476 -3.51437
455 1 8.452 -2.79054 -0.568043 -3.51004
456 1 9.07586 -3.68279 1.88135 -3.50611
457 1 6.77467 -2.96901 1.40641 -3.50717
458 1 10.9452 -3.47281 -0.0610705 -3.46276
459 1 12.7739 -1.62796 0.117004 -3.47283
460 1 13.3146 -2.28332 2.64912 -3.47856
461 1 10.827 -1.90334 2.06343 -3.47328
462 1 14.9845 -2.14291 0.816088 -3.27123
463 1 16.7501 -0.447703 1.00719 -2.8236
464 1 15.6925 -1.42745 5.23515 -3.11547
465 1 15.0762 -0.616408 2.82216 -3.31852
466 1 -16.6083 1.19512 1.28243 -2.68144
467 1 -15.1689 3.29949 1.40015 -3.26466
468 1 -16.2395 0.556865 3.60021 -3.0942
469 1 -14.4651 0.41711 1.67415 -3.36775
470 1 -12.861 0.608081 -0.194256 -3.48936
471 1 -12.7435 0.411289 3.53251 -3.48619
472 1 -14.3389 2.20883 3.73242 -3.45135
473 1 -10.8922 -1.04518 -0.484558 -3.51039
474 1 -9.20294 0.832213 -0.236782 -3.48948
475 1 -9.02811 -1.13972 1.56562 -3.47089
476 1 -10.925 0.569626 1.64892 -3.51094
477 1 -7.47278 -0.790471 -0.314504 -3.44754
478 1 -5.66233 0.832436 -0.243372 -3.51309
479 1 -5.59123 -1.1609 1.70292 -3.48175
480 1 -7.33925 0.639626 1.69133 -3.49559
481 1 -3.99183 -1.0013 -0.265921 -3.4628
482 1 -2.12639 0.81757 -0.114206 -3.50616
483 1 -2.12598 -1.13873 1.48087 -3.48743
484 1 -3.77392 0.731466 1.62395 -3.49489
485 1 -0.207256 -0.90787 -0.37964 -3.46742
486 1 1.49816 0.838692 -0.359027 -3.45351
487 1 1.58064 -1.03011 1.52326 -3.49682
488 1 -0.350295 0.450518 1.63101 -3.47034
489 1 3.3956 -0.952215 -0.446687 -3.53653
490 1 5.05159 0.878365 -0.272957 -3.49297
491 1 5.02127 -1.16924 1.46177 -3.52161
492 1 3.35604 0.648928 1.57686 -3.49935
493 1 6.82126 -0.969933 -0.368595 -3.5013
494 1 8.6485 0.852851 -0.156266 -3.47104
495 1 8.49759 -1.03661 1.46892 -3.43883
496 1 6.84687 0.738222 1.48367 -3.49249
497 1 10.3495 -1.13204 -0.434033 -3.49869
498 1 12.049 0.831194 -0.165283 -3.53834
499 1 12.6612 0.118269 2.18923 -3.50875
500 1 10.2054 0.572541 1.67684 -3.45966
501 1 14.5494 0.156626 0.199067 -3.38698
502 1 16.4704 2.02526 0.336956 -3.03263
503 1 16.9077 1.39563 2.88821 -2.77509
504 1 14.6948 1.78607 2.29862 -3.45269
505 1 17.2425 2.51486 47.1271 -2.54344
506 1 -15.7253 3.87135 -0.879401 -2.85812
507 1 -15.1333 5.05678 3.21401 -3.04996
508 1 -13.3286 3.24212 -0.563476 -3.51749
509 1 -11.5914 5.03799 -0.480589 -3.50143
510 1 -12.6534 2.28893 1.69434 -3.4992
511 1 -13.3565 4.85092 1.5336 -3.43251
512 1 -10.92 2.5561 -0.0110004 -3.48989
513 1 -9.20937 4.33617 0.0419368 -3.51262
514 1 -9.14562 2.38061 1.85684 -3.51541
515 1 -10.838 4.22366 1.93215 -3.52171
516 1 -7.4286 2.61805 -0.0836715 -3.52887
517 1 -5.59652 4.39468 0.0743197 -3.51036
518 1 -5.65604 2.49861 1.7493 -3.509
519 1 -7.39464 4.25474 2.00641 -3.51689
520 1 -3.84267 2.65132 -0.092452 -3.5054
521 1 -1.90246 4.22865 0.0388819 -3.51239
522 1 -2.03363 2.36969 1.87547 -3.51442
523 1 -3.73314 4.22506 2.03957 -3.47837
524 1 -0.208689 2.52519 -0.200213 -3.48155
525 1 1.49413 4.31835 0.00864536 -3.52014
526 1 1.30676 2.39993 1.90857 -3.44372
527 1 -0.128917 4.16858 2.0172 -3.44593
528 1 3.22425 2.50411 -0.150116 -3.49748
529 1 5.02114 4.3362 0.0700872 -3.50779
530 1 5.05595 2.39487 1.86361 -3.4558
531 1 3.23356 4.02837 1.9461 -3.50887
532 1 6.75693 2.65661 -0.153616 -3.49563
533 1 8.65786 4.43447 0.0425096 -3.48896
534 1 8.6722 2.54521 1.85176 -3.51127
535 1 6.80176 4.12051 1.92168 -3.52078
536 1 10.2907 2.7138 -0.0284773 -3.46572
537 1 12.1159 4.32019 0.21114 -3.4936
538 1 12.0428 2.4271 1.81513 -3.49096
539 1 10.3525 4.31243 2.04749 -3.50448
540 1 13.9039 2.52622 0.0170901 -3.52052
541 1 15.6854 4.32157 0.155305 -3.084
542 1 16.2815 3.74053 2.58892 -3.0539
543 1 13.7487 4.31285 2.14581 -3.5162
544 1 -15.5363 5.71197 0.946778 -2.65643
545 1 -13.9261 5.6561 -0.952306 -3.22837
546 1 -12.4646 7.56612 -0.980877 -3.25102
547 1 -11.4681 6.62722 1.60333 -3.50069
548 1 -13.8464 7.24009 1.04822 -2.97564
549 1 -9.7531 6.74978 -0.408151 -3.46526
550 1 -8.00683 8.68598 -0.271212 -3.48197
551 1 -9.10782 6.0447 2.2216 -3.48374
552 1 -9.76257 8.38066 1.7404 -3.49965
553 1 -7.52772 6.32804 0.211559 -3.46938
554 1 -5.59224 7.91116 0.169412 -3.52742
555 1 -5.55504 6.07264 2.02158 -3.49375
556 1 -7.29703 7.79466 2.26057 -3.49846
557 1 -3.74797 6.16012 0.14656 -3.51717
558 1 -1.97774 7.92402 0.237699 -3.51313
559 1 -2.06412 5.86707 1.99551 -3.48658
560 1 -3.81081 7.63251 2.21441 -3.47443
561 1 -0.208076 6.13063 0.251522 -3.4991
562 1 1.36894 7.88953 0.326203 -3.44833
563 1 1.60018 5.8608 2.11629 -3.46422
564 1 -0.203435 7.72249 2.18973 -3.51095
565 1 3.16619 6.07494 0.281084 -3.50339
566 1 4.92258 7.94382 0.3808 -3.52131
567 1 5.00769 5.95293 2.10598 -3.53391
568 1 3.13513 7.70346 2.31086 -3.50181
569 1 6.7634 6.06091 0.0494914 -3.47378
570 1 8.61878 7.81842 0.212173 -3.49875
571 1 8.60144 6.04729 2.0705 -3.51734
572 1 6.74815 7.78735 2.21783 -3.49238
573 1 10.4122 6.10528 0.277166 -3.46311
574 1 12.2507 7.78308 0.255555 -3.46882
575 1 12.0908 6.0968 2.22559 -3.49791
576 1 10.3172 7.88217 2.08282 -3.48012
577 1 14.0034 6.0961 0.183936 -3.33166
578 1 15.5832 5.99937 1.99642 -2.81866
579 1 13.9708 7.71292 2.18415 -3.07408
580 1 -12.7367 9.94119 -1.31003 -2.63298
581 1 -10.7146 11.6751 -1.37978 -2.83585
582 1 -12.0856 9.0293 1.12428 -3.20261
583 1 -10.2659 9.39168 -0.850362 -3.37143
584 1 -8.37648 11.1882 -0.770337 -3.45998
585 1 -7.95993 10.1411 1.76962 -3.49855
586 1 -10.3726 10.8933 0.961255 -3.15979
587 1 -6.05944 10.504 -0.206888 -3.48633
588 1 -4.22465 12.1637 0.0331289 -3.47369
589 1 -5.54395 9.52932 2.29806 -3.51701
590 1 -6.12688 11.984 1.72564 -3.46813
591 1 -3.82838 9.68199 0.532015 -3.49254
592 1 -1.99149 11.4894 0.626738 -3.50124
593 1 -2.09081 9.51459 2.22152 -3.49983
594 1 -3.81486 11.453 2.52227 -3.52229
595 1 -0.279266 9.70687 0.384864 -3.50149
596 1 1.37872 11.5569 0.472409 -3.46984
597 1 1.47371 9.49888 2.40324 -3.48311
598 1 -0.300024 11.516 2.40652 -3.51504
599 1 3.07007 9.71509 0.401625 -3.5289
600 1 5.05207 11.3439 0.575275 -3.52657
601 1 4.98498 9.41973 2.35905 -3.48654
602 1 3.27126 11.175 2.42305 -3.48411
603 1 6.84907 9.60004 0.417068 -3.50741
604 1 8.61731 11.4308 0.526306 -3.42947
605 1 8.59704 9.52315 2.32426 -3.47692
606 1 6.89663 11.223 2.35858 -3.48869
607 1 10.4221 9.61439 0.33619 -3.47576
608 1 12.195 11.3487 0.577555 -2.86435
609 1 12.2399 9.522 2.25717 -3.33844
610 1 10.5255 11.298 2.34703 -3.34384
611 1 14.0077 9.50511 0.514706 -2.71743
612 1 -9.04746 13.4673 -1.17032 -2.64715
613 1 -8.48333 12.7076 1.26439 -3.0892
614 1 -6.69091 13.1392 -0.564758 -3.27982
615 1 -4.95242 14.613 -0.470615 -2.9476
616 1 -4.39836 13.8287 1.80674 -3.27128
617 1 -6.74538 14.3685 1.56999 -2.75369
618 1 -2.56849 14.127 0.205491 -3.33698
619 1 -0.429391 15.8413 0.36613 -2.8072
620 1 -2.13973 13.3579 2.55737 -3.48982
621 1 -2.41922 15.7925 2.13348 -2.81493
622 1 -0.220532 13.3833 0.677954 -3.46496
623 1 1.67234 14.9012 0.711753 -3.19759
624 1 1.69988 13.0863 2.5516 -3.49762
625 1 -0.100946 14.9078 2.65 -3.30184
626 1 3.23346 13.1065 0.647242 -3.45305
627 1 5.15801 14.9693 0.671486 -2.97401
628 1 5.04964 12.9302 2.51752 -3.48013
629 1 3.57264 14.8558 2.53494 -3.12187
630 1 6.93231 13.2767 0.719793 -3.37383
631 1 8.65793 12.986 2.67017 -3.14189
632 1 6.78142 14.8792 2.71653 -2.68634
633 1 10.2153 13.0914 0.481067 -2.70953
634 1 1.72836 16.4019 3.01304 -2.5306
635 1 -5.3163 -14.3998 5.13872 -2.8228
636 1 -7.01031 -14.334 6.85724 -2.68573
637 1 -0.973522 -13.5038 5.84887 -3.10369
638 1 -2.76384 -13.6396 7.61665 -3.12822
639 1 0.662417 -13.4556 3.66218 -3.17516
640 1 1.51198 -14.1888 6.33868 -2.7876
641 1 -0.308817 -14.0473 8.16025 -2.96585
642 1 5.52481 -13.1853 6.79873 -2.90672
643 1 3.64101 -13.0536 8.64222 -3.1395
644 1 6.08372 -13.5295 9.3556 -2.72365
645 1 -12.8417 -11.7959 4.77703 -2.84689
646 1 -11.0582 -13.5757 4.56545 -2.72765
647 1 -9.25228 -11.9061 4.57862 -3.42997
648 1 -9.27109 -13.6421 6.52381 -2.95903
649 1 -11.1578 -11.792 6.49358 -3.29128
650 1 -7.78285 -13.7704 4.56374 -3.20255
651 1 -5.82219 -11.8729 4.61208 -3.4998
652 1 -5.17641 -12.9221 6.99539 -3.25701
653 1 -7.56416 -11.9904 6.67343 -3.4359
654 1 -3.48326 -12.9273 5.0995 -3.31412
655 1 -1.52629 -11.0354 5.33654 -3.5033
656 1 -1.00351 -11.7631 7.75408 -3.45556
657 1 -3.49652 -11.1619 7.07428 -3.45349
658 1 0.889989 -11.8266 5.55735 -3.50756
659 1 2.65635 -11.5791 3.6312 -3.43853
660 1 1.44321 -12.4152 8.06133 -3.30615
661 1 0.783866 -10.0669 7.64121 -3.47495
662 1 3.37015 -12.394 6.18874 -3.31327
663 1 5.01149 -10.6376 6.27392 -3.44891
664 1 5.48869 -11.2421 8.72004 -3.44139
665 1 3.05293 -10.5792 8.14306 -3.47134
666 1 7.2678 -11.3267 6.65691 -3.30347
667 1 9.09784 -9.43109 6.96281 -3.43839
668 1 8.12083 -12.0617 9.29 -3.00746
669 1 7.25623 -9.62337 8.8795 -3.4863
670 1 9.50528 -11.887 7.22385 -2.71204
671 1 11.4288 -10.0721 7.50739 -2.87403
672 1 9.74721 -10.3537 9.41338 -3.28156
673 1 -14.5158 -9.77505 4.95554 -2.71215
674 1 -12.7022 -8.28926 4.7682 -3.41917
675 1 -13.0039 -10.1052 6.7743 -3.26052
676 1 -14.4705 -8.2925 7.017 -3.0725
677 1 -10.9712 -10.1765 4.7707 -3.45636
678 1 -9.25879 -8.30336 4.69992 -3.49245
679 1 -9.36669 -10.0865 6.63957 -3.46241
680 1 -11.0502 -8.42628 6.92872 -3.45047
681 1 -7.54262 -10.2058 4.75876 -3.48409
682 1 -5.76464 -8.45348 4.93599 -3.51813
683 1 -5.70302 -10.3528 6.75882 -3.48982
684 1 -7.51749 -8.54279 6.79603 -3.51252
685 1 -3.90019 -10.4748 4.85995 -3.45134
686 1 -2.2092 -8.4857 4.91133 -3.49358
687 1 -1.56166 -9.35869 7.1736 -3.50053
688 1 -3.97997 -8.56556 6.70683 -3.51568
689 1 0.248888 -9.19477 5.28229 -3.50633
690 1 2.10102 -9.05663 3.40876 -3.52631
691 1 2.56718 -9.89563 5.74381 -3.52936
692 1 0.224001 -7.60543 7.39568 -3.52004
693 1 4.41432 -9.81716 3.86811 -3.47097
694 1 6.18009 -7.96112 3.84357 -3.5035
695 1 4.95027 -8.8679 8.23232 -3.49453
696 1 4.45974 -8.24683 5.73425 -3.49031
697 1 6.69168 -8.85314 6.40553 -3.50352
698 1 8.64576 -7.12121 6.53598 -3.46742
699 1 9.11961 -8.03689 9.0872 -3.51032
700 1 6.81246 -7.06481 8.42605 -3.54892
701 1 10.9209 -7.69026 7.17427 -3.43343
702 1 12.9886 -5.96618 7.2848 -3.29199
703 1 11.6043 -8.50501 9.61087 -3.31904
704 1 10.9784 -6.09223 9.1826 -3.49688
705 1 13.248 -8.27719 7.65385 -2.7006
706 1 13.3493 -6.64744 9.68073 -3.11431
707 1 -16.3933 -4.69314 5.3228 -2.90833
708 1 -16.2731 -6.30123 7.10455 -2.75224
709 1 -14.4225 -6.42049 5.22643 -3.41678
710 1 -12.5789 -4.761 5.26123 -3.48883
711 1 -12.6641 -6.78789 7.14164 -3.39656
712 1 -14.3694 -4.80742 7.20552 -3.45266
713 1 -10.9295 -6.57443 5.00716 -3.48961
714 1 -9.03813 -4.88297 5.10047 -3.47636
715 1 -9.13784 -6.63389 6.85912 -3.50376
716 1 -10.7867 -4.78034 7.01585 -3.46936
717 1 -7.3423 -6.55405 4.79448 -3.4685
718 1 -5.66015 -4.88383 5.07085 -3.48542
719 1 -5.70343 -6.69479 6.79029 -3.49503
720 1 -7.42346 -4.94135 6.94931 -3.49469
721 1 -3.91583 -6.63002 5.03647 -3.47867
722 1 -2.09433 -6.57697 3.15985 -3.48069
723 1 -2.15774 -6.81508 6.81915 -3.52159
724 1 -3.91597 -4.83701 6.82445 -3.44303
725 1 -0.201498 -8.30709 2.86574 -3.49923
726 1 1.54487 -6.46148 3.12473 -3.45496
727 1 2.08107 -7.45409 5.44645 -3.46166
728 1 -0.31589 -6.85225 4.84534 -3.48985
729 1 3.83304 -7.29386 3.36418 -3.50502
730 1 5.57571 -5.4425 3.70024 -3.48406
731 1 6.13008 -6.4135 6.03144 -3.50144
732 1 3.70682 -5.80968 5.45865 -3.4787
733 1 7.99377 -6.24194 4.2639 -3.52169
734 1 9.73433 -4.39138 4.29184 -3.50336
735 1 8.68362 -5.29576 8.75199 -3.45036
736 1 8.12798 -4.72464 6.26704 -3.49949
737 1 10.4918 -5.28506 6.74279 -3.48446
738 1 12.2765 -3.52975 6.79132 -3.49482
739 1 12.7116 -4.22091 9.42141 -3.44925