ITEM: TIMESTEP
118000
ITEM: NUMBER OF ATOMS
3804
ITEM: BOX BOUNDS ss ss pp
-1.8129526450832277e+01 1.8345543600361641e+01
-1.7699044319805200e+01 1.7524127712796112e+01
-2.5594199999999998e+00 4.5939420000000005e+01
ITEM: ATOMS id type x y z c_peratom
1 1 -5.49657 -14.5685 -1.98793 -2.9985
2 1 -7.13337 -14.8537 -0.110698 -2.62989
3 1 -1.97535 -14.8767 -2.18686 -3.13654
4 1 -3.71513 -14.7631 -0.145716 -3.03647
5 1 -0.0158849 -16.6549 -2.38088 -2.49687
6 1 1.8544 -16.6457 44.6752 -2.80496
7 1 -0.381906 -15.0619 -0.270386 -3.21213
8 1 5.67765 -15.4775 44.8848 -2.85807
9 1 3.7849 -15.5476 -1.80408 -2.89398
10 1 7.56033 -13.7108 0.39902 -2.69892
11 1 -12.5394 -10.7719 -1.70075 -2.83839
12 1 -10.8432 -12.5401 -1.93006 -2.71409
13 1 -9.05092 -11.0668 -1.8202 -3.4246
14 1 -9.1983 -12.8493 -0.00998773 -3.09562
15 1 -10.8809 -11.08 0.0777989 -3.3206
16 1 -7.31135 -12.893 -1.83091 -3.37122
17 1 -5.32715 -11.0638 -1.68101 -3.48281
18 1 -5.43153 -13.038 0.0156755 -3.43406
19 1 -7.22379 -11.2034 0.164088 -3.50964
20 1 -3.65646 -12.9291 -1.90832 -3.50166
21 1 -1.95514 -12.9073 44.68 -3.47686
22 1 -1.88013 -13.211 0.0852796 -3.41758
23 1 -3.71137 -11.3153 0.155651 -3.46963
24 1 -0.266147 -14.8207 44.4728 -3.35484
25 1 1.63451 -13.0738 44.7219 -3.44596
26 1 1.48318 -14.7684 -2.07558 -3.33536
27 1 -0.213576 -13.042 -1.88755 -3.49056
28 1 3.33164 -14.6181 44.3951 -3.29581
29 1 5.23116 -12.9522 44.5595 -3.4902
30 1 5.76057 -13.7835 -1.63365 -3.21109
31 1 3.45578 -13.1363 -1.97546 -3.46597
32 1 7.61285 -13.6573 45.0864 -3.08826
33 1 9.2508 -11.7472 45.3099 -3.18018
34 1 9.2815 -12.0421 0.77729 -3.07364
35 1 7.65283 -11.9944 -1.29304 -3.3425
36 1 10.7614 -11.9097 -1.09873 -2.73602
37 1 12.8059 -10.1132 -1.15545 -2.82517
38 1 11.0176 -10.2118 0.821383 -3.35116
39 1 -14.3177 -9.06816 -1.53721 -2.7359
40 1 -12.5188 -7.3715 -1.6098 -3.4596
41 1 -12.5791 -9.17188 0.262735 -3.35237
42 1 -14.4626 -7.40412 0.34899 -3.10958
43 1 -10.785 -9.2207 -1.67627 -3.49678
44 1 -8.82564 -7.55051 -1.59995 -3.49637
45 1 -8.94791 -9.38669 0.123966 -3.5224
46 1 -10.7387 -7.56312 0.402106 -3.51101
47 1 -7.16496 -9.44564 -1.58085 -3.49228
48 1 -5.40866 -9.24858 44.8305 -3.49493
49 1 -5.36285 -9.50265 0.431015 -3.49304
50 1 -7.09148 -7.65605 0.344683 -3.50195
51 1 -3.56673 -11.0311 44.7775 -3.4966
52 1 -1.79668 -9.46797 44.9167 -3.46143
53 1 -1.89574 -11.1504 -1.80631 -3.48308
54 1 -3.64172 -9.41837 -1.73673 -3.44734
55 1 -0.223394 -11.2075 44.815 -3.48456
56 1 1.56528 -9.4094 44.841 -3.48693
57 1 1.58617 -11.4354 -1.71626 -3.42121
58 1 0.0845074 -9.63793 -1.66532 -3.47126
59 1 3.21949 -11.2318 44.9067 -3.50557
60 1 5.05899 -9.52658 44.9378 -3.50347
61 1 5.21169 -11.1947 -1.83839 -3.47023
62 1 3.30514 -9.60563 -1.66885 -3.50896
63 1 6.98791 -11.2844 44.9894 -3.39189
64 1 8.57064 -9.35154 44.776 -3.49895
65 1 9.10985 -10.0583 -1.07149 -3.41684
66 1 6.93129 -9.38482 -1.57872 -3.43992
67 1 11.0705 -10.105 45.5647 -3.3017
68 1 12.8445 -8.44264 45.5603 -3.26743
69 1 13.0077 -8.62178 0.804744 -3.24403
70 1 11.1363 -8.38818 -0.975116 -3.48378
71 1 14.4825 -8.35676 -1.07643 -2.70486
72 1 14.6337 -6.70896 1.00752 -3.1167
73 1 -16.0694 -3.66833 -1.54185 -3.01413
74 1 -16.1982 -5.49668 0.293262 -2.70227
75 1 -14.5734 -5.7102 -1.41979 -3.27545
76 1 -12.41 -4.18348 -1.43232 -3.52215
77 1 -12.557 -5.77353 0.354716 -3.4786
78 1 -14.3869 -3.85327 0.417716 -3.44299
79 1 -10.6623 -5.93855 -1.52 -3.47298
80 1 -8.78152 -5.59701 45.1408 -3.47116
81 1 -8.88044 -5.87316 0.394504 -3.51287
82 1 -10.724 -4.16976 0.445292 -3.50793
83 1 -7.12499 -7.3485 45.0929 -3.44921
84 1 -5.46027 -5.67384 45.1653 -3.48244
85 1 -5.33783 -7.58425 -1.74636 -3.5123
86 1 -7.23341 -5.75783 -1.494 -3.47563
87 1 -3.57988 -7.44195 44.9654 -3.54151
88 1 -1.73388 -5.68399 45.0211 -3.4656
89 1 -1.87207 -7.77202 -1.6323 -3.4756
90 1 -3.36095 -5.86316 -1.44499 -3.46677
91 1 -0.0951453 -7.52485 45.0952 -3.49192
92 1 1.57485 -5.77759 45.1042 -3.50437
93 1 1.61894 -7.72969 -1.60307 -3.50496
94 1 -0.220402 -5.97871 -1.2347 -3.40454
95 1 3.35891 -7.77562 45.0189 -3.51605
96 1 5.1816 -5.8155 45.1156 -3.51387
97 1 5.15038 -7.7016 -1.58573 -3.50205
98 1 3.41635 -6.00132 -1.50126 -3.49322
99 1 6.84617 -7.63542 45.0326 -3.50598
100 1 8.63177 -5.85377 45.2208 -3.49944
101 1 8.743 -7.73702 -1.61814 -3.45148
102 1 6.99923 -5.90382 -1.44165 -3.4914
103 1 10.5313 -7.66406 45.0809 -3.52277
104 1 12.3502 -5.93516 45.147 -3.47252
105 1 12.7846 -6.59979 -0.775936 -3.42106
106 1 10.4502 -6.01235 -1.41082 -3.48517
107 1 14.569 -6.62682 45.8333 -3.16413
108 1 16.4067 -4.82129 45.8426 -2.79669
109 1 16.4821 -4.77559 1.30049 -2.64618
110 1 14.518 -4.86385 -0.761898 -3.34841
111 1 -15.9856 -0.418993 -1.41056 -3.01754
112 1 -16.0089 -2.09141 0.43539 -3.0276
113 1 -14.12 -2.06634 -1.46598 -3.50331
114 1 -12.3505 -2.17251 45.2485 -3.50205
115 1 -12.5517 -2.31794 0.470091 -3.44536
116 1 -14.1467 -0.61573 0.631809 -3.40039
117 1 -10.6705 -4.02728 45.1387 -3.52337
118 1 -8.99163 -2.10976 45.2693 -3.49314
119 1 -8.96881 -4.0462 -1.32473 -3.50668
120 1 -10.6476 -2.21455 -1.26162 -3.50806
121 1 -7.19033 -3.76163 45.2599 -3.4789
122 1 -5.31503 -2.21881 45.3076 -3.50052
123 1 -5.24279 -4.13295 -1.25268 -3.50805
124 1 -7.09885 -2.36479 -1.2152 -3.48941
125 1 -3.43816 -3.97955 45.0846 -3.49298
126 1 -1.76715 -2.10072 45.3586 -3.46695
127 1 -1.73791 -4.17129 -1.17402 -3.43387
128 1 -3.49298 -2.23773 -1.25144 -3.52835
129 1 -0.0876572 -3.90534 45.3289 -3.49286
130 1 1.59891 -2.11227 45.3853 -3.51322
131 1 1.57991 -4.11676 -1.30559 -3.52343
132 1 -0.114251 -2.16417 -1.16294 -3.49027
133 1 3.31296 -3.94917 45.266 -3.52072
134 1 5.09999 -2.22654 45.5295 -3.5079
135 1 5.08953 -4.22942 -1.3063 -3.5079
136 1 3.2808 -2.3736 -1.23498 -3.50166
137 1 7.01636 -4.10237 45.4785 -3.43199
138 1 8.66796 -2.37626 45.4175 -3.46608
139 1 8.78352 -4.06221 -1.28091 -3.50999
140 1 6.80419 -2.37083 -1.14354 -3.48143
141 1 10.5871 -4.10423 45.3208 -3.53208
142 1 12.407 -2.27992 45.5047 -3.45982
143 1 12.1076 -4.21119 -1.08596 -3.48429
144 1 10.5351 -2.33974 -1.11469 -3.48706
145 1 14.0911 -4.10125 45.4347 -3.46728
146 1 15.7536 -2.31672 45.5467 -3.16153
147 1 16.5552 -2.99452 -0.788674 -2.98204
148 1 13.9164 -2.44461 -0.98398 -3.49644
149 1 -18.0667 2.24907 40.9635 -2.62205
150 1 -15.7841 1.5308 45.2858 -3.15975
151 1 -15.9899 0.963372 0.79869 -3.12953
152 1 -13.9883 -0.300609 45.1951 -3.50553
153 1 -12.247 1.49891 45.3014 -3.47576
154 1 -12.262 -0.28071 -1.38072 -3.4508
155 1 -14.0808 1.14423 -1.05281 -3.39674
156 1 -10.6033 -0.337053 45.3114 -3.47705
157 1 -8.6926 1.3406 45.3931 -3.5176
158 1 -8.86332 -0.52882 -1.25655 -3.53069
159 1 -10.4932 1.37108 -1.27389 -3.46691
160 1 -7.10367 -0.47084 45.4359 -3.46299
161 1 -5.42602 1.32435 45.5218 -3.44009
162 1 -5.30121 -0.404453 -1.32879 -3.48342
163 1 -7.01119 1.29472 -1.13253 -3.47283
164 1 -3.38761 -0.360814 45.4913 -3.48081
165 1 -1.77509 1.60693 45.4671 -3.4787
166 1 -1.83847 -0.299943 -1.09204 -3.49618
167 1 -3.6099 1.45459 -1.09656 -3.4844
168 1 -0.165976 -0.271411 45.6371 -3.48827
169 1 1.83741 1.38153 45.5776 -3.50561
170 1 1.70007 -0.485852 -0.938624 -3.46785
171 1 0.0902865 1.40088 -1.02453 -3.51311
172 1 3.41408 -0.446276 45.4016 -3.46839
173 1 5.21562 1.29964 45.6051 -3.51484
174 1 4.97386 -0.552711 -1.12265 -3.47356
175 1 3.31193 1.24599 -0.969797 -3.46874
176 1 6.98943 -0.617835 45.4337 -3.48703
177 1 8.76976 1.17229 45.7083 -3.52217
178 1 8.67321 -0.655863 -1.02735 -3.50775
179 1 6.80072 1.08806 -1.01184 -3.51172
180 1 10.5088 -0.63319 45.4778 -3.5006
181 1 12.2313 1.22537 45.6767 -3.51826
182 1 12.2508 -0.593662 -0.710233 -3.46002
183 1 10.4359 1.04314 -0.921333 -3.47804
184 1 14.1199 -0.505368 45.7645 -3.48395
185 1 15.9589 1.37668 46.0404 -3.23146
186 1 15.6572 -0.623894 -0.774168 -3.30123
187 1 14.0418 1.18555 -0.73494 -3.50315
188 1 17.2871 -0.64378 -2.4245 -2.61947
189 1 -16.0138 4.71243 45.8089 -2.8974
190 1 -15.719 2.94976 -1.13694 -3.01975
191 1 -13.9778 3.21674 45.509 -3.4584
192 1 -12.1148 4.89556 45.5483 -3.51168
193 1 -12.4031 2.96674 -1.16381 -3.5282
194 1 -14.1355 4.92016 -0.952925 -3.42283
195 1 -10.4673 3.18415 45.4607 -3.47525
196 1 -8.90523 5.05966 45.6032 -3.47611
197 1 -8.73647 2.96093 -1.14865 -3.45558
198 1 -10.6013 4.75572 -0.934553 -3.53342
199 1 -7.04071 3.35572 45.5248 -3.52051
200 1 -5.16035 4.92616 45.6658 -3.46446
201 1 -5.33172 3.0655 -1.07235 -3.4912
202 1 -7.16262 4.83858 -0.899206 -3.5054
203 1 -3.52132 3.16177 45.586 -3.46116
204 1 -1.63726 4.82998 45.7228 -3.43601
205 1 -1.70856 3.11351 -1.02307 -3.50831
206 1 -3.55455 4.84984 -0.899465 -3.52654
207 1 0.0245683 3.26852 45.6296 -3.45207
208 1 1.82755 5.00267 45.7156 -3.5448
209 1 1.78181 3.13567 -0.987734 -3.50314
210 1 0.115407 4.97835 -0.854937 -3.50936
211 1 3.61318 3.13988 45.7632 -3.48394
212 1 5.31879 4.79635 45.6926 -3.47616
213 1 5.17094 3.08173 -0.867157 -3.49936
214 1 3.55646 4.86343 -0.760811 -3.47534
215 1 7.00043 3.03585 45.8101 -3.49929
216 1 8.66015 4.76227 -2.62244 -3.49081
217 1 8.80905 2.9781 -0.777708 -3.52045
218 1 7.02471 4.72836 -0.758056 -3.50788
219 1 10.4496 3.02237 45.7246 -3.49683
220 1 12.3035 4.66998 46.0768 -3.50221
221 1 12.1061 2.80167 -0.678984 -3.50394
222 1 10.5616 4.73929 -0.743352 -3.50121
223 1 14.0229 2.8593 45.9766 -3.42909
224 1 15.8096 4.47145 -2.45934 -3.03828
225 1 15.9665 2.81885 -0.417685 -3.10313
226 1 13.9876 4.38935 -0.450601 -3.39967
227 1 -15.7299 6.62523 -0.935294 -2.80489
228 1 -13.9436 6.69367 45.6985 -3.38125
229 1 -12.3601 8.51922 45.7255 -3.44973
230 1 -12.2932 6.54373 -0.888263 -3.46667
231 1 -13.9606 8.23468 -0.89268 -3.10939
232 1 -10.4843 6.84476 45.6991 -3.45907
233 1 -8.80432 8.6709 45.8812 -3.48853
234 1 -8.84363 6.6644 -0.767831 -3.4772
235 1 -10.5528 8.29775 -0.882285 -3.4541
236 1 -6.93005 6.80289 45.8653 -3.54614
237 1 -5.22059 8.75445 45.9295 -3.52653
238 1 -5.2505 6.71876 -0.792645 -3.51385
239 1 -7.10376 8.54413 -0.776626 -3.52813
240 1 -3.52959 6.79327 45.8011 -3.52912
241 1 -1.59569 8.62568 45.9037 -3.47792
242 1 -1.76252 6.68256 -0.874443 -3.50444
243 1 -3.42618 8.58735 -0.690459 -3.49373
244 1 -0.0681422 6.68468 45.8737 -3.46681
245 1 1.83734 8.37244 -2.40737 -3.50125
246 1 1.92084 6.64326 -0.624314 -3.5021
247 1 0.0735117 8.52839 -0.681932 -3.4669
248 1 3.70832 6.66841 -2.68521 -3.4895
249 1 5.45838 8.59993 -2.47193 -3.49325
250 1 5.24468 6.55303 -0.670294 -3.47722
251 1 3.7173 8.44963 -0.654252 -3.50018
252 1 7.06939 6.63857 46.1252 -3.50606
253 1 9.16747 8.38883 -2.50393 -3.49063
254 1 8.84993 6.55392 -0.531896 -3.51802
255 1 7.07877 8.32106 -0.459402 -3.50793
256 1 10.7278 6.60599 46.0241 -3.42332
257 1 12.2662 8.30422 -2.37005 -3.39217
258 1 12.6505 6.34024 -0.565068 -3.47571
259 1 10.7475 8.13951 -0.390447 -3.49508
260 1 14.1741 6.56233 -2.45927 -3.29021
261 1 15.7626 6.04941 -0.423027 -2.77624
262 1 14.3734 8.12989 -0.456138 -3.02517
263 1 -14.7632 9.10203 44.9784 -2.77324
264 1 -13.0006 10.809 45.2901 -2.8351
265 1 -12.2923 10.2797 -0.709606 -3.26121
266 1 -10.6807 10.4475 45.8528 -3.40966
267 1 -8.94965 12.1967 -2.51637 -3.34542
268 1 -8.93673 10.3025 -0.90104 -3.46274
269 1 -10.7425 12.2934 -0.702627 -3.17739
270 1 -6.97844 10.529 -2.61912 -3.46111
271 1 -5.24136 12.1063 -2.49049 -3.47351
272 1 -5.20709 10.4324 -0.478774 -3.50695
273 1 -7.12008 11.9151 -0.510656 -3.48219
274 1 -3.30885 10.3322 46.12 -3.49186
275 1 -1.59523 12.1882 -2.38178 -3.49726
276 1 -1.50232 10.2786 -0.522024 -3.48862
277 1 -3.33213 12.0119 -0.392177 -3.46867
278 1 0.17835 10.4392 -2.55346 -3.50046
279 1 1.83797 12.1768 -2.22378 -3.4989
280 1 1.85272 10.1688 -0.479144 -3.49043
281 1 0.170925 12.0466 -0.347373 -3.45898
282 1 3.53719 10.2464 -2.33895 -3.51965
283 1 5.45233 11.9344 -2.35986 -3.49159
284 1 5.435 10.3076 -0.38229 -3.52947
285 1 3.53016 11.8562 -0.250439 -3.4661
286 1 7.28495 10.2765 -2.19125 -3.48043
287 1 9.01032 11.9162 -1.95903 -3.4309
288 1 9.08246 9.96237 -0.371701 -3.52353
289 1 7.3731 11.926 -0.167055 -3.41955
290 1 10.8138 10.1801 -2.10921 -3.46661
291 1 12.5741 11.9208 -1.91198 -2.83624
292 1 12.4119 10.0407 -0.16999 -3.35705
293 1 10.7343 11.8977 -0.0864856 -3.34117
294 1 14.0271 10.0341 -2.17384 -2.77602
295 1 -11.3269 12.6071 45.1661 -2.68812
296 1 -8.73431 13.8264 -0.428256 -2.98648
297 1 -7.07321 13.9085 -2.38727 -3.22666
298 1 -5.0581 15.4638 -2.13998 -2.86904
299 1 -5.19873 13.4756 -0.370012 -3.37337
300 1 -6.67809 15.2525 -0.391482 -2.70986
301 1 -3.38292 13.8075 -2.31561 -3.42399
302 1 -1.79509 15.6959 -2.12238 -3.09943
303 1 -1.57325 13.6986 -0.271233 -3.42878
304 1 -3.46878 15.2891 -0.0540408 -3.06387
305 1 -0.014091 14.0055 -2.18234 -3.49922
306 1 2.09319 15.3244 -2.0119 -3.06334
307 1 1.94871 13.5692 -0.211337 -3.40003
308 1 0.159026 15.391 -0.0667844 -3.20802
309 1 3.82285 13.6898 -2.16352 -3.43138
310 1 5.65835 15.464 -1.94473 -2.96203
311 1 5.6208 13.4067 -0.232988 -3.3975
312 1 4.00743 15.129 -0.0309363 -3.0436
313 1 7.35419 13.8297 -1.94464 -3.29324
314 1 9.15982 13.7237 0.204482 -3.07339
315 1 7.21754 15.2639 -0.036477 -2.76968
316 1 10.7546 13.6975 -1.79218 -2.7081
317 1 0.386729 16.8885 -2.17236 -2.42326
318 1 -5.66451 -14.7751 1.84101 -2.98746
319 1 -7.27159 -14.7964 3.75959 -2.77717
320 1 -1.91579 -14.8655 1.7942 -2.9795
321 1 -3.82703 -14.9589 3.65705 -2.8699
322 1 2.14929 -15.6087 0.284836 -2.94411
323 1 3.93139 -15.5342 2.15477 -2.50091
324 1 0.628839 -15.6546 2.08891 -2.68181
325 1 5.84284 -13.6818 2.39392 -3.08212
326 1 3.98896 -14.1866 4.47332 -3.05837
327 1 7.43291 -13.8983 4.26795 -2.69375
328 1 -12.6526 -11 2.21795 -2.82948
329 1 -10.8573 -12.7617 2.00027 -2.73837
330 1 -9.02087 -11.247 1.9717 -3.4461
331 1 -9.21782 -13.1733 4.0358 -3.09975
332 1 -10.9717 -11.1065 3.89266 -3.30911
333 1 -7.49347 -13.1652 1.88974 -3.32828
334 1 -5.50133 -11.3911 1.93901 -3.51148
335 1 -5.44835 -13.1405 3.76499 -3.4041
336 1 -7.24946 -11.4891 3.90026 -3.51794
337 1 -3.68617 -13.1432 1.84965 -3.46894
338 1 -1.87464 -11.4567 2.02179 -3.52446
339 1 -1.9752 -13.3971 3.87871 -3.36853
340 1 -3.73993 -11.5208 3.93895 -3.49438
341 1 -0.198821 -13.2545 1.95991 -3.41981
342 1 1.44445 -13.2178 -0.0554645 -3.49321
343 1 2.19321 -13.9471 2.45927 -3.28111
344 1 -0.145806 -11.6519 3.90633 -3.5066
345 1 3.94708 -13.8459 0.353006 -3.32736
346 1 5.76443 -11.9444 0.570314 -3.45572
347 1 5.7978 -12.3281 4.59341 -3.39079
348 1 4.06739 -12.1393 2.51927 -3.42686
349 1 7.71035 -12.2086 2.60102 -3.26534
350 1 9.2125 -10.3542 2.86821 -3.41884
351 1 9.13836 -12.2963 4.524 -3.08939
352 1 7.44981 -10.5671 4.70235 -3.4971
353 1 10.7895 -12.145 2.70787 -2.75526
354 1 12.4542 -10.2442 2.90251 -2.83313
355 1 10.8312 -10.5682 4.77194 -3.28991
356 1 -14.4113 -9.11971 2.04546 -2.74639
357 1 -12.5813 -7.50809 2.11636 -3.43963
358 1 -12.748 -9.13428 4.04041 -3.39464
359 1 -14.538 -7.41771 3.99287 -3.07948
360 1 -10.9491 -9.36671 2.124 -3.47216
361 1 -8.8347 -7.75367 2.08448 -3.49894
362 1 -9.0137 -9.46897 3.98522 -3.4801
363 1 -10.5932 -7.66171 4.04666 -3.45964
364 1 -7.23723 -9.53464 2.16213 -3.49281
365 1 -5.34155 -7.78723 2.26541 -3.51715
366 1 -5.46197 -9.76502 4.02159 -3.53548
367 1 -7.21031 -7.73826 4.17905 -3.52411
368 1 -3.6164 -9.66872 2.275 -3.49721
369 1 -1.97309 -9.66729 0.130679 -3.49141
370 1 -1.85774 -9.80951 4.06762 -3.50019
371 1 -3.63289 -8.02374 4.17847 -3.4676
372 1 -0.146217 -11.459 0.111537 -3.48526
373 1 1.66287 -9.6129 0.202137 -3.50185
374 1 1.46909 -11.4616 1.99929 -3.45957
375 1 -0.107103 -9.74763 2.07087 -3.48685
376 1 3.255 -11.4202 0.0267824 -3.48475
377 1 5.09391 -9.60128 0.0666357 -3.46651
378 1 5.8432 -10.4945 2.72962 -3.49838
379 1 3.37169 -9.85769 2.13801 -3.48925
380 1 7.53804 -10.3589 0.942075 -3.47136
381 1 9.27283 -8.52274 1.01577 -3.49662
382 1 9.17583 -8.80053 4.91722 -3.46547
383 1 7.49957 -8.61838 2.84152 -3.51856
384 1 10.8737 -8.65396 2.87761 -3.33311
385 1 12.748 -6.92999 3.02565 -3.4779
386 1 12.7315 -8.6213 4.85119 -3.31838
387 1 10.8946 -6.98398 4.73035 -3.5039
388 1 14.6945 -8.47226 3.10335 -2.5788
389 1 14.6076 -7.04288 5.05362 -3.07657
390 1 -16.1164 -3.92939 2.44901 -2.99836
391 1 -16.3386 -5.65578 4.0588 -2.68427
392 1 -14.5219 -5.81259 2.19107 -3.34165
393 1 -12.5589 -4.34794 2.40174 -3.50645
394 1 -12.5224 -6.14223 4.13813 -3.48966
395 1 -14.3962 -4.34827 4.23138 -3.46378
396 1 -10.7338 -5.92919 2.28828 -3.48963
397 1 -8.88474 -4.14374 2.37044 -3.48227
398 1 -8.85051 -5.89143 3.9778 -3.43872
399 1 -10.7468 -4.26541 4.34392 -3.51299
400 1 -7.02585 -5.93632 2.07671 -3.47079
401 1 -5.20307 -5.94655 0.433593 -3.48641
402 1 -5.25679 -6.12162 4.2732 -3.50835
403 1 -7.04534 -4.45188 4.44822 -3.46963
404 1 -3.50754 -7.65818 0.215875 -3.47945
405 1 -1.77896 -5.89169 0.558651 -3.40332
406 1 -1.87763 -7.84764 2.25151 -3.51754
407 1 -3.55518 -6.12213 2.46479 -3.48099
408 1 -0.121052 -7.77721 0.326511 -3.5024
409 1 1.66971 -6.12221 0.483901 -3.47566
410 1 1.60617 -7.86288 2.32553 -3.49638
411 1 -0.0484033 -6.12497 2.55779 -3.48477
412 1 3.53885 -7.69298 0.335943 -3.45761
413 1 5.16815 -5.93606 0.450525 -3.47646
414 1 5.00873 -7.9144 2.32514 -3.51559
415 1 3.24819 -6.00674 2.42552 -3.50488
416 1 6.87141 -7.81222 0.461799 -3.52637
417 1 8.60002 -6.0554 0.436885 -3.50409
418 1 9.34513 -6.75105 2.80142 -3.49756
419 1 6.94373 -6.16357 2.40104 -3.52776
420 1 11.2317 -6.82125 1.06794 -3.51511
421 1 12.926 -4.96448 1.31557 -3.47427
422 1 12.9102 -5.2514 4.96933 -3.53693
423 1 11.0926 -4.96363 3.09796 -3.47468
424 1 14.6904 -5.27257 3.09576 -3.3273
425 1 16.0078 -3.28487 3.23419 -2.99442
426 1 16.2382 -5.07969 5.04452 -2.70168
427 1 14.6097 -3.2178 5.24093 -3.40563
428 1 -16.2159 -0.892029 2.61203 -3.11321
429 1 -16.2648 -2.47539 4.59815 -3.04727
430 1 -14.3182 -2.35552 2.68009 -3.41105
431 1 -12.5347 -0.726916 2.74038 -3.50026
432 1 -12.5849 -2.62764 4.53423 -3.49183
433 1 -14.3841 -0.829935 4.61025 -3.42758
434 1 -10.8076 -2.49706 2.563 -3.51656
435 1 -8.97571 -2.27324 0.639786 -3.51051
436 1 -8.85397 -2.56351 4.24099 -3.52093
437 1 -10.6314 -0.623437 4.42657 -3.48188
438 1 -7.1233 -4.05453 0.475035 -3.49347
439 1 -5.32442 -2.29771 0.558759 -3.49483
440 1 -5.29062 -4.20053 2.46758 -3.507
441 1 -7.06502 -2.43452 2.50188 -3.50413
442 1 -3.52599 -4.08316 0.660174 -3.50029
443 1 -1.65444 -2.2754 0.706921 -3.47786
444 1 -1.84556 -4.23693 2.40516 -3.52758
445 1 -3.73755 -2.38923 2.56668 -3.47264
446 1 -0.00388409 -4.36379 0.591609 -3.42991
447 1 1.50106 -2.42217 0.604998 -3.50493
448 1 1.45985 -4.31397 2.58962 -3.45598
449 1 -0.116563 -2.43738 2.53362 -3.49214
450 1 3.29113 -4.24019 0.615251 -3.54749
451 1 5.11863 -2.42893 0.544558 -3.46232
452 1 5.11908 -4.35278 2.51489 -3.53078
453 1 3.3023 -2.53117 2.52881 -3.48258
454 1 6.82793 -4.15837 0.60345 -3.49894
455 1 8.80659 -2.44296 0.931225 -3.49518
456 1 8.6869 -4.29417 2.5177 -3.47795
457 1 6.88912 -2.60497 2.70812 -3.47874
458 1 10.4081 -4.35984 0.736541 -3.51142
459 1 12.0526 -2.37585 0.931313 -3.51176
460 1 13.0033 -3.27897 3.12632 -3.53217
461 1 10.6009 -2.67536 2.87268 -3.44926
462 1 14.6117 -3.28893 1.1569 -3.35661
463 1 16.3379 -1.65172 1.36499 -3.02488
464 1 16.3762 -1.60686 5.30327 -2.9814
465 1 14.5647 -1.51685 3.47107 -3.33326
466 1 -17.5434 1.1405 2.70763 -2.5438
467 1 -15.9835 3.03168 2.76466 -3.22553
468 1 -16.0608 0.83103 4.49096 -3.18059
469 1 -14.4352 1.10197 2.68068 -3.51868
470 1 -12.3885 1.18579 0.84231 -3.44702
471 1 -12.5477 1.15747 4.68164 -3.53259
472 1 -14.4784 2.69832 4.78486 -3.42681
473 1 -10.7906 -0.481144 0.75143 -3.46296
474 1 -8.91639 1.20789 0.764416 -3.5191
475 1 -9.01663 -0.681184 2.44038 -3.48165
476 1 -10.5994 1.21589 2.83267 -3.46054
477 1 -7.08718 -0.58515 0.730767 -3.50889
478 1 -5.28255 1.27501 0.862445 -3.4831
479 1 -5.48827 -0.644853 2.62791 -3.45032
480 1 -7.08413 1.17461 2.50239 -3.47075
481 1 -3.56123 -0.577092 0.921821 -3.49747
482 1 -1.8588 1.37393 0.77667 -3.4672
483 1 -1.84097 -0.571836 2.73963 -3.46443
484 1 -3.59411 1.07055 2.67009 -3.45773
485 1 -0.197161 -0.417881 0.885787 -3.48572
486 1 1.74681 1.25204 0.946306 -3.5286
487 1 1.79875 -0.756986 2.7849 -3.48886
488 1 0.0261181 1.14294 2.8836 -3.53191
489 1 3.41456 -0.655999 0.823684 -3.49519
490 1 5.0884 1.17739 1.08899 -3.50517
491 1 5.1228 -0.921081 2.80068 -3.50748
492 1 3.42005 1.07869 2.97053 -3.48759
493 1 6.86928 -0.637394 0.890576 -3.52253
494 1 8.58878 1.09299 0.942741 -3.46695
495 1 8.71482 -0.787997 2.94523 -3.50279
496 1 6.74187 1.00255 2.99559 -3.50951
497 1 10.3043 -0.585186 0.936854 -3.40709
498 1 12.054 0.949564 1.19083 -3.42803
499 1 12.1989 -0.836235 2.95682 -3.47719
500 1 10.3733 0.952474 3.05338 -3.47284
501 1 13.8823 -0.732952 1.23088 -3.49943
502 1 15.8231 0.860819 1.36229 -3.23849
503 1 16.3802 0.183799 3.77542 -2.94481
504 1 13.9635 0.788259 3.21033 -3.46224
505 1 17.4687 0.96765 -0.379217 -2.53237
506 1 -15.8672 4.65881 0.906416 -3.01307
507 1 -15.9405 4.58142 4.6888 -3.10435
508 1 -14.1891 2.85663 0.825163 -3.45973
509 1 -12.4777 4.68669 0.899854 -3.51627
510 1 -12.5752 2.8014 2.77614 -3.46686
511 1 -14.0693 4.63085 2.77104 -3.4443
512 1 -10.5849 2.96169 0.824677 -3.49284
513 1 -8.86187 4.75076 0.947197 -3.5136
514 1 -8.93707 2.93146 2.78833 -3.49432
515 1 -10.7528 4.63947 2.91032 -3.45781
516 1 -6.97514 3.11553 0.915101 -3.45897
517 1 -5.31439 4.79937 0.878073 -3.46746
518 1 -5.37963 2.93074 2.70792 -3.47753
519 1 -7.02388 4.80602 2.77858 -3.47317
520 1 -3.60348 2.98237 0.933273 -3.47991
521 1 -1.73815 4.8825 0.96612 -3.50264
522 1 -1.98655 2.90049 3.04407 -3.46298
523 1 -3.58734 4.59091 2.9257 -3.48102
524 1 -0.0530328 3.0806 0.972861 -3.50736
525 1 1.7672 4.67398 1.1321 -3.47624
526 1 1.8211 2.86669 3.06327 -3.44812
527 1 -0.0508604 4.4758 3.11591 -3.4639
528 1 3.43063 3.01481 0.991596 -3.47982
529 1 5.33019 4.7006 1.12148 -3.46998
530 1 5.08697 2.87604 2.96779 -3.52492
531 1 3.44614 4.69039 3.00444 -3.50065
532 1 6.92733 2.8386 1.14012 -3.50279
533 1 8.81524 4.5984 1.16977 -3.52312
534 1 8.61307 2.68896 3.14006 -3.48662
535 1 7.16922 4.58078 3.0742 -3.42527
536 1 10.4374 2.7124 1.18052 -3.48887
537 1 12.3615 4.44216 1.26483 -3.51015
538 1 12.1103 2.66963 3.09362 -3.44837
539 1 10.5577 4.4334 3.22385 -3.49718
540 1 13.9852 2.50503 1.39294 -3.48171
541 1 15.733 4.22283 1.51728 -3.01028
542 1 15.7367 2.5019 3.23217 -3.1416
543 1 13.8993 4.23465 3.42211 -3.42283
544 1 -15.91 6.34167 2.83097 -2.72515
545 1 -14.1334 6.5053 0.941687 -3.35544
546 1 -12.3229 8.3063 1.0411 -3.46781
547 1 -12.2986 6.35314 2.94487 -3.42585
548 1 -14.097 8.2203 2.87411 -3.13108
549 1 -10.6311 6.60067 1.02904 -3.48681
550 1 -8.9564 8.37963 1.02374 -3.47075
551 1 -9.02797 6.36749 2.97747 -3.52233
552 1 -10.7313 8.19311 3.01877 -3.515
553 1 -7.03199 6.63621 1.03389 -3.54492
554 1 -5.16607 8.47281 1.22808 -3.50146
555 1 -5.32093 6.42944 2.99454 -3.47788
556 1 -7.2223 8.1646 3.16295 -3.52252
557 1 -3.58909 6.50235 1.22905 -3.47178
558 1 -1.75658 8.24295 1.18931 -3.53911
559 1 -1.69383 6.27752 3.05205 -3.50079
560 1 -3.48211 8.13656 3.19771 -3.52459
561 1 0.0995732 6.50839 1.19088 -3.49592
562 1 1.78861 8.35427 1.43131 -3.49715
563 1 1.67419 6.46853 3.14993 -3.50917
564 1 -0.148219 8.13506 3.17877 -3.46341
565 1 3.63431 6.45853 1.32223 -3.53466
566 1 5.32248 8.33589 1.47005 -3.46866
567 1 5.42361 6.24708 3.18222 -3.51462
568 1 3.46733 8.08268 3.40803 -3.48262
569 1 6.8756 6.47326 1.21331 -3.48479
570 1 8.98046 8.20867 1.41509 -3.4504
571 1 8.7962 6.22643 3.12028 -3.42738
572 1 7.29075 8.00465 3.32262 -3.47935
573 1 10.6453 6.35369 1.42218 -3.50818
574 1 12.4315 8.06824 1.47009 -3.44389
575 1 12.5035 6.22576 3.3481 -3.48479
576 1 10.6412 7.97233 3.42211 -3.53692
577 1 14.0982 6.23201 1.54647 -3.35022
578 1 15.6999 5.8077 3.4465 -2.75188
579 1 14.4889 7.86904 3.35012 -3.01701
580 1 -14.06 10.1887 1.12584 -2.61245
581 1 -12.3207 11.8924 1.23686 -2.85054
582 1 -12.4586 10.1446 3.22907 -3.27542
583 1 -10.5929 10.0985 1.04413 -3.43455
584 1 -8.93341 11.7906 1.30748 -3.42115
585 1 -9.04315 9.97722 3.1608 -3.47117
586 1 -10.7327 11.6967 3.16898 -3.25454
587 1 -7.0708 10.0447 1.30492 -3.50939
588 1 -5.39857 11.942 1.48805 -3.52979
589 1 -5.33201 10.0076 3.27078 -3.53365
590 1 -7.21407 11.6376 3.3826 -3.50844
591 1 -3.4263 10.3347 1.51481 -3.51309
592 1 -1.61154 11.8555 1.44419 -3.38208
593 1 -1.71293 9.93317 3.36822 -3.49174
594 1 -3.51902 11.8662 3.60889 -3.45881
595 1 0.022773 10.0433 1.61974 -3.4722
596 1 1.77686 11.8174 1.67763 -3.52087
597 1 1.68472 9.82661 3.50737 -3.51321
598 1 0.0940618 11.7417 3.50456 -3.50364
599 1 3.56465 9.99757 1.48986 -3.49375
600 1 5.43911 11.749 1.64068 -3.51466
601 1 5.2932 9.77883 3.46676 -3.4933
602 1 3.56681 11.5943 3.58467 -3.53504
603 1 7.24091 9.81683 1.49228 -3.48846
604 1 8.92289 11.6858 1.66597 -3.47435
605 1 8.91903 9.7408 3.55804 -3.44151
606 1 7.24123 11.4511 3.59251 -3.48415
607 1 10.6429 9.86008 1.70447 -3.48802
608 1 12.5316 11.5819 1.91398 -2.84081
609 1 12.5991 9.67728 3.38325 -3.2695
610 1 10.6198 11.4197 3.6631 -3.34532
611 1 14.3032 9.56776 1.36703 -2.68706
612 1 -10.4488 13.5673 1.55078 -2.73606
613 1 -9.01715 13.3722 3.41157 -3.0415
614 1 -7.38671 13.5906 1.65508 -3.29302
615 1 -5.37944 14.9632 1.7719 -3.05189
616 1 -5.53593 13.3574 3.58567 -3.37644
617 1 -7.1609 15.1986 3.45729 -2.68957
618 1 -3.29474 13.4056 1.73065 -3.37741
619 1 -1.81403 15.3325 1.84453 -3.10694
620 1 -1.85015 13.4777 3.61102 -3.40219
621 1 -3.73085 15.0979 3.62447 -3.04115
622 1 0.0862149 13.5989 1.58737 -3.48455
623 1 1.99552 15.2464 1.69296 -3.13194
624 1 1.80744 13.447 3.52574 -3.45808
625 1 0.0702712 15.2326 3.74349 -3.18801
626 1 3.77316 13.4778 1.81271 -3.43736
627 1 5.5463 15.1707 1.78417 -2.95301
628 1 5.55482 13.2896 3.63137 -3.42789
629 1 3.79222 15.0126 3.69638 -3.03368
630 1 7.20375 13.525 1.78643 -3.31943
631 1 8.91499 13.2323 3.75833 -3.16262
632 1 7.10215 15.1081 3.69987 -2.68344
633 1 10.7694 13.3059 2.03112 -2.75418
634 1 0.137513 16.7997 1.94434 -2.37023
635 1 -5.54931 -14.9311 5.57056 -2.87171
636 1 -7.41818 -15.0137 7.2491 -2.53133
637 1 -1.37268 -13.9528 6.28625 -3.03786
638 1 -3.29808 -14.1309 8.08639 -3.02875
639 1 0.415166 -14.1116 4.27485 -3.1167
640 1 2.15522 -14.1588 6.43223 -3.01481
641 1 0.248603 -14.1492 8.17688 -3.10907
642 1 5.617 -14.2382 6.18124 -2.93516
643 1 4.05459 -14.3264 8.19304 -3.01002
644 1 7.41145 -14.2504 8.39458 -2.71887
645 1 -12.6717 -11.0973 5.69888 -2.8764
646 1 -11.1898 -12.9442 5.52029 -2.68784
647 1 -9.06043 -11.2925 5.61555 -3.45387
648 1 -9.28939 -13.135 7.27987 -3.09924
649 1 -11.0927 -11.3115 7.50454 -3.31138
650 1 -7.31743 -13.2219 5.7627 -3.2618
651 1 -5.61569 -11.5933 5.83805 -3.49494
652 1 -5.65791 -13.4543 7.59076 -3.30387
653 1 -7.30823 -11.7025 7.74487 -3.47815
654 1 -3.85996 -13.2975 5.68042 -3.35186
655 1 -1.92139 -11.6188 5.89911 -3.43755
656 1 -1.53274 -12.4784 8.28491 -3.44859
657 1 -3.89026 -11.6914 7.796 -3.49738
658 1 0.521198 -12.3639 6.40116 -3.46363
659 1 2.1448 -12.3416 4.40098 -3.47775
660 1 2.30437 -12.4706 8.24656 -3.48899
661 1 0.442686 -10.7214 8.38207 -3.5374
662 1 4.02717 -12.4283 6.33487 -3.4275
663 1 5.84512 -10.774 6.61311 -3.50122
664 1 5.63894 -12.5917 8.28561 -3.44114
665 1 3.99923 -10.6665 8.54508 -3.48596
666 1 7.68858 -12.6385 6.55188 -3.3789
667 1 9.22207 -10.7619 6.61797 -3.44876
668 1 9.19979 -12.5937 8.57047 -3.08497
669 1 7.52357 -10.8376 8.49783 -3.51448
670 1 10.6775 -12.701 6.64334 -2.67171
671 1 12.3719 -10.8096 6.61866 -2.84484
672 1 10.805 -10.8013 8.61776 -3.35158
673 1 -14.4769 -9.0965 5.99997 -2.75179
674 1 -12.5884 -7.77963 6.06126 -3.34475
675 1 -12.7901 -9.61391 7.88242 -3.30691
676 1 -14.7393 -7.70742 8.06671 -3.04775
677 1 -10.8812 -9.36845 5.81967 -3.46676
678 1 -8.89793 -7.96759 6.09709 -3.42552
679 1 -8.97839 -9.80416 7.93209 -3.51471
680 1 -10.8955 -8.06391 7.99091 -3.51165
681 1 -7.27524 -9.69107 5.89872 -3.48838
682 1 -5.41489 -8.03744 6.00624 -3.55044
683 1 -5.49049 -9.87731 7.85228 -3.49493
684 1 -7.13715 -8.09235 8.02754 -3.48334
685 1 -3.71493 -9.95661 6.11521 -3.48953
686 1 -2.17092 -8.02888 6.11805 -3.42246
687 1 -1.92569 -9.96719 7.78993 -3.51336
688 1 -3.76285 -8.12981 8.04651 -3.51749
689 1 -0.322628 -9.93584 5.94947 -3.42571
690 1 1.59483 -9.85051 3.98833 -3.47851
691 1 2.38478 -10.6158 6.3623 -3.48211
692 1 -0.125489 -8.15791 7.9599 -3.4718
693 1 4.04305 -10.4773 4.42973 -3.48731
694 1 5.78278 -8.72199 4.71895 -3.5107
695 1 5.82176 -8.96298 8.59434 -3.48213
696 1 4.07966 -8.90093 6.70453 -3.49002
697 1 7.54626 -9.04028 6.6942 -3.47072
698 1 9.08586 -7.05465 6.80968 -3.49593
699 1 9.02163 -8.94279 8.77377 -3.51984
700 1 7.34037 -7.18809 8.6787 -3.46103
701 1 10.8205 -8.72001 6.76033 -3.50829
702 1 12.711 -7.05827 6.73402 -3.43647
703 1 12.6016 -8.98675 8.53494 -3.32011
704 1 10.84 -7.11949 8.68922 -3.50131
705 1 14.2888 -8.93229 6.83515 -2.70023
706 1 14.4133 -7.22715 8.67022 -3.11584
707 1 -16.2318 -4.2657 6.31696 -2.9878
708 1 -16.3565 -5.8322 8.16375 -2.69691
709 1 -14.7003 -6.2323 5.99471 -3.32288
710 1 -12.6918 -4.64176 6.21374 -3.52783
711 1 -12.7023 -6.2974 8.04045 -3.49813
712 1 -14.4825 -4.32889 8.09338 -3.44805
713 1 -10.7004 -6.25906 5.98993 -3.49637
714 1 -8.96849 -4.30123 6.09672 -3.50397
715 1 -8.96535 -6.36189 7.94119 -3.50389
716 1 -10.7691 -4.53902 7.90152 -3.48083
717 1 -7.22271 -6.26631 6.12478 -3.48725
718 1 -5.31041 -4.51532 6.39134 -3.48394
719 1 -5.52216 -6.3797 8.15324 -3.49127
720 1 -7.30291 -4.53778 8.13974 -3.51288
721 1 -3.70139 -6.27304 6.28772 -3.44653
722 1 -1.97884 -6.27098 4.36362 -3.49505
723 1 -1.96728 -6.44801 8.03207 -3.48714
724 1 -3.74429 -4.66849 8.25172 -3.51079
725 1 -0.0448885 -8.16061 4.22666 -3.44484
726 1 1.57484 -6.23417 4.45738 -3.52178
727 1 1.4652 -8.29915 6.05231 -3.45195
728 1 -0.329511 -6.46653 6.16678 -3.48606
729 1 3.29445 -8.04688 4.10197 -3.48698
730 1 5.04109 -6.33268 4.33878 -3.51401
731 1 5.78381 -7.09168 6.67012 -3.5075
732 1 3.36921 -6.50079 6.32028 -3.52933
733 1 7.556 -6.95328 4.82194 -3.49809
734 1 9.2351 -5.20433 4.90451 -3.50042
735 1 9.16446 -5.42072 8.73358 -3.49287
736 1 7.32065 -5.21622 6.84229 -3.48136
737 1 10.9666 -5.4416 6.81324 -3.4917
738 1 12.749 -3.754 7.15081 -3.50259
739 1 12.6821 -5.47699 8.92684 -3.47634
740 1 10.9396 -3.77849 9.03139 -3.47875
741 1 14.6296 -5.31645 6.96532 -3.31265