ITEM: TIMESTEP
128000
ITEM: NUMBER OF ATOMS
3804
ITEM: BOX BOUNDS ss ss pp
-1.8124862202923243e+01 1.7991114527804573e+01
-1.7773393230139927e+01 1.7207172208167048e+01
-2.7763200000000001e+00 4.6156320000000001e+01
ITEM: ATOMS id type x y z c_peratom
1 1 -5.43258 -14.5473 -2.38282 -2.97648
2 1 -7.19484 -14.7503 -0.162703 -2.684
3 1 -2.18342 -14.9162 -2.35527 -3.03963
4 1 -3.90982 -14.7163 -0.375097 -3.0306
5 1 -0.277356 -16.3699 -2.33362 -2.51419
6 1 1.64564 -16.3784 44.8685 -2.81042
7 1 -0.281514 -14.8954 -0.361219 -3.18554
8 1 5.49138 -15.2714 45.3278 -2.8484
9 1 3.88315 -15.3152 -1.68643 -2.87437
10 1 7.48922 -13.6697 0.507367 -2.73854
11 1 -12.2072 -11.317 -2.24983 -2.81628
12 1 -10.2431 -12.9874 -2.19741 -2.74974
13 1 -8.95561 -11.068 -2.23255 -3.36521
14 1 -9.08341 -13.1179 -0.0678297 -3.06246
15 1 -10.8049 -11.2191 -0.336562 -3.31224
16 1 -7.333 -13.0364 -2.13386 -3.39044
17 1 -5.41537 -11.055 -2.08539 -3.47879
18 1 -5.6624 -12.9735 -0.18505 -3.42512
19 1 -7.33387 -11.195 -0.376596 -3.48125
20 1 -3.6549 -12.8519 -2.07725 -3.4724
21 1 -1.95946 -12.7147 44.8686 -3.42259
22 1 -1.9282 -13.0327 -0.132781 -3.48514
23 1 -3.76765 -11.1842 -0.0933587 -3.50538
24 1 -0.276424 -14.6597 44.8942 -3.34229
25 1 1.48783 -12.8217 44.979 -3.48432
26 1 1.56883 -14.5893 -2.24261 -3.33959
27 1 -0.236346 -12.9002 -1.97716 -3.5147
28 1 3.24715 -14.5192 44.8389 -3.32858
29 1 5.19268 -12.9655 45.0536 -3.45238
30 1 5.71897 -13.7124 -1.3709 -3.19585
31 1 3.25028 -12.8348 -1.87448 -3.47739
32 1 7.48783 -13.7169 45.3386 -3.08816
33 1 9.3513 -11.9907 45.5301 -3.22087
34 1 9.33262 -12.1335 0.407785 -3.0634
35 1 7.62802 -12.0389 -1.52917 -3.38525
36 1 11.0741 -12.0478 -1.34917 -2.65739
37 1 12.7424 -10.1971 -1.26052 -2.88344
38 1 11.1593 -10.5322 0.648023 -3.28652
39 1 -14.0326 -9.43575 -2.02618 -2.68085
40 1 -12.4289 -7.5612 -1.98452 -3.42234
41 1 -12.3927 -9.34172 -0.123453 -3.30218
42 1 -14.1949 -7.41936 -0.220071 -3.1244
43 1 -10.7047 -9.273 -2.11276 -3.44341
44 1 -9.00729 -7.60309 -1.89424 -3.5207
45 1 -9.17709 -9.45808 -0.172238 -3.51631
46 1 -10.8503 -7.58552 -0.0253818 -3.47663
47 1 -7.23951 -9.43089 -2.03461 -3.46625
48 1 -5.41231 -9.24598 45.0988 -3.45237
49 1 -5.58719 -9.54266 -0.0779224 -3.50039
50 1 -7.25928 -7.67676 -0.0280359 -3.49156
51 1 -3.65423 -11.0683 45.046 -3.48933
52 1 -1.91842 -9.27011 45.106 -3.52253
53 1 -1.99522 -11.0287 -1.9228 -3.43513
54 1 -3.79164 -9.33356 -1.96071 -3.44075
55 1 -0.235626 -11.0889 45.1988 -3.45749
56 1 1.59968 -9.3408 45.2046 -3.50742
57 1 1.54126 -11.2113 -1.89132 -3.49874
58 1 -0.384087 -9.42053 -1.83447 -3.44562
59 1 3.36733 -11.1144 45.0976 -3.49876
60 1 5.17536 -9.40448 45.373 -3.46961
61 1 5.24364 -11.385 -1.7935 -3.49545
62 1 3.46764 -9.52841 -1.6514 -3.49497
63 1 6.87106 -11.1103 45.1439 -3.44939
64 1 8.67599 -9.66128 45.1896 -3.46943
65 1 9.53243 -10.3066 -1.36226 -3.43235
66 1 7.10671 -9.52677 -1.67728 -3.46215
67 1 11.2419 -10.3217 45.5059 -3.28853
68 1 12.9999 -8.43348 45.8078 -3.27476
69 1 12.9138 -8.65742 0.752258 -3.336
70 1 11.1214 -8.46014 -1.27427 -3.46519
71 1 14.4576 -8.43029 -1.27508 -2.70295
72 1 14.6607 -6.77006 0.783145 -3.10822
73 1 -15.8818 -3.71836 -1.79791 -2.99314
74 1 -15.9293 -5.59862 0.0966513 -2.72726
75 1 -13.9873 -5.48501 -1.83202 -3.35468
76 1 -12.3564 -3.70319 -1.74284 -3.47423
77 1 -12.4853 -5.73176 0.124951 -3.47801
78 1 -14.1907 -3.93334 0.104076 -3.40183
79 1 -10.903 -5.656 -1.82663 -3.49396
80 1 -8.73266 -5.59528 45.2602 -3.39553
81 1 -8.99491 -5.94561 0.0376375 -3.48835
82 1 -10.6763 -3.92517 0.278806 -3.50972
83 1 -7.28338 -7.50011 45.107 -3.51279
84 1 -5.44489 -5.5704 45.1697 -3.51054
85 1 -5.37574 -7.4996 -1.86559 -3.52277
86 1 -7.21252 -5.74072 -1.59786 -3.43104
87 1 -3.79745 -7.59838 45.1616 -3.42827
88 1 -1.86721 -5.72457 45.4535 -3.48002
89 1 -2.22678 -7.50921 -1.82873 -3.50533
90 1 -3.84207 -5.61789 -1.62841 -3.47282
91 1 -0.190272 -7.47377 45.4424 -3.4819
92 1 1.74862 -5.67664 45.4679 -3.51992
93 1 1.52839 -7.78698 -1.81617 -3.47022
94 1 -0.0724515 -5.90829 -1.49002 -3.46966
95 1 3.49807 -7.49987 45.3788 -3.49852
96 1 5.30548 -5.9712 45.5936 -3.43717
97 1 5.20777 -7.80067 -1.52458 -3.50523
98 1 3.33348 -5.91324 -1.31162 -3.47617
99 1 6.87878 -7.77942 45.3435 -3.47372
100 1 8.65659 -6.02035 45.4722 -3.52046
101 1 8.62502 -7.8166 -1.66845 -3.44474
102 1 6.97853 -6.05738 -1.56701 -3.45894
103 1 10.4491 -7.69774 45.3708 -3.51307
104 1 12.2548 -6.05801 45.4906 -3.46129
105 1 12.8829 -6.71067 -1.08364 -3.42571
106 1 10.4275 -5.96276 -1.51787 -3.53356
107 1 14.5217 -6.57722 45.9245 -3.20024
108 1 16.4122 -4.69333 46.1908 -2.80648
109 1 16.3993 -4.69339 1.08392 -2.68679
110 1 14.7635 -4.98507 -0.873659 -3.35747
111 1 -15.9959 -0.363663 -1.65612 -2.98829
112 1 -16.0188 -2.43935 0.257477 -2.96109
113 1 -14.1824 -2.0319 -1.77949 -3.43778
114 1 -12.2737 -1.98741 45.3221 -3.4597
115 1 -12.4261 -2.2581 0.47911 -3.48271
116 1 -14.3455 -0.591268 0.38531 -3.44146
117 1 -10.7116 -3.80169 45.2563 -3.53996
118 1 -8.83269 -2.08913 45.4085 -3.47294
119 1 -8.99493 -4.10274 -1.69496 -3.51161
120 1 -10.5172 -2.09735 -1.67067 -3.48393
121 1 -7.26133 -3.89562 45.285 -3.37753
122 1 -5.26151 -2.14218 45.4136 -3.5132
123 1 -5.58867 -4.03547 -1.761 -3.39716
124 1 -7.11922 -2.27625 -1.66861 -3.50238
125 1 -3.55485 -3.83384 45.4192 -3.47307
126 1 -1.85631 -2.21111 45.5297 -3.47908
127 1 -1.75491 -4.10165 -1.56716 -3.49793
128 1 -3.64873 -2.34896 -1.40628 -3.53726
129 1 -0.0984945 -4.03887 45.451 -3.48929
130 1 1.69341 -2.40295 45.4803 -3.49899
131 1 1.59178 -4.0829 -1.41651 -3.44059
132 1 -0.0822824 -2.29234 -1.55343 -3.4929
133 1 3.63098 -4.14168 45.459 -3.4839
134 1 5.21943 -2.34222 45.652 -3.47192
135 1 5.21424 -4.10512 -1.32839 -3.51577
136 1 3.30685 -2.51393 -1.38951 -3.47926
137 1 6.90834 -4.08178 45.5584 -3.52707
138 1 8.7826 -2.45475 45.6496 -3.47535
139 1 8.60338 -4.29122 -1.54293 -3.47742
140 1 7.00978 -2.35815 -1.35466 -3.45856
141 1 10.4078 -4.24655 45.5892 -3.50142
142 1 12.3011 -2.34596 45.7386 -3.54126
143 1 12.3723 -4.37315 -1.53373 -3.49666
144 1 10.4629 -2.71144 -1.38104 -3.50534
145 1 14.0479 -4.20858 45.5161 -3.45571
146 1 15.5345 -2.35574 45.813 -3.19572
147 1 16.3169 -2.95524 -0.890877 -3.03196
148 1 13.8909 -2.52274 -1.19933 -3.47518
149 1 -18.0329 2.26792 40.8482 -2.6809
150 1 -16.0487 1.66045 45.4912 -3.10117
151 1 -15.9637 1.18262 0.619721 -3.10563
152 1 -14.1711 -0.19113 45.3746 -3.47988
153 1 -12.2527 1.43907 45.8402 -3.44048
154 1 -12.2455 -0.412223 -1.55866 -3.48237
155 1 -14.2196 1.23775 -1.37217 -3.43208
156 1 -10.4175 -0.302041 45.4435 -3.49992
157 1 -8.73759 1.49688 45.5995 -3.42783
158 1 -8.78897 -0.411755 -1.34379 -3.48703
159 1 -10.534 1.30339 -1.3278 -3.48922
160 1 -7.16528 -0.321526 45.6334 -3.50462
161 1 -5.24225 1.39845 45.7116 -3.46883
162 1 -5.24124 -0.463883 -1.32851 -3.48342
163 1 -6.99868 1.28187 -1.39105 -3.48278
164 1 -3.44254 -0.38035 45.6396 -3.49362
165 1 -1.81413 1.34215 45.7038 -3.49302
166 1 -1.75229 -0.557459 -1.24965 -3.4887
167 1 -3.60409 1.19926 -1.15352 -3.4771
168 1 -0.0699876 -0.525261 45.6399 -3.52857
169 1 1.6745 1.2973 45.881 -3.45458
170 1 1.67943 -0.484037 -1.25861 -3.46425
171 1 -0.0576563 1.13385 -1.32615 -3.46927
172 1 3.46399 -0.607294 45.7498 -3.51274
173 1 5.40782 1.30728 45.9299 -3.49444
174 1 5.17127 -0.741208 -1.21599 -3.51984
175 1 3.42447 1.11246 -1.26024 -3.4594
176 1 7.1229 -0.659609 45.8602 -3.48426
177 1 9.01129 1.20135 45.8362 -3.46843
178 1 8.86492 -0.814914 -1.12406 -3.4948
179 1 7.26776 1.10323 -1.19655 -3.48267
180 1 10.5608 -0.630416 45.8014 -3.46587
181 1 12.2416 1.12299 45.9787 -3.48759
182 1 12.1253 -0.823725 -1.14618 -3.49512
183 1 10.5984 1.07337 -1.171 -3.49455
184 1 14.0873 -0.476945 45.7953 -3.46279
185 1 15.8285 1.30179 46.1055 -3.20329
186 1 15.5774 -0.744687 -1.14453 -3.26501
187 1 13.9593 1.0509 -1.11729 -3.51576
188 1 17.3889 -0.900115 46.0551 -2.56022
189 1 -16.012 4.77641 45.789 -2.96146
190 1 -15.9387 2.82704 -1.23194 -3.00736
191 1 -14.0058 3.08887 45.7863 -3.40652
192 1 -12.3415 4.91147 45.8386 -3.50279
193 1 -12.3655 3.05721 -1.30247 -3.46553
194 1 -14.1642 4.69121 -1.3257 -3.43257
195 1 -10.3657 3.0957 45.7262 -3.461
196 1 -8.64373 4.88946 45.9085 -3.50767
197 1 -8.75313 2.96838 -1.17823 -3.48494
198 1 -10.5208 4.79176 -1.0774 -3.53134
199 1 -6.91795 3.16922 45.7332 -3.51006
200 1 -5.29052 5.00263 45.8153 -3.45646
201 1 -5.27439 3.02681 -1.10993 -3.48749
202 1 -7.13883 4.77807 -1.10707 -3.48311
203 1 -3.61279 3.09539 45.9379 -3.50493
204 1 -1.71771 4.81315 46.021 -3.52775
205 1 -1.8824 3.02706 -1.04664 -3.53405
206 1 -3.6357 4.81487 -0.945972 -3.47644
207 1 0.0394682 3.0166 45.8285 -3.45832
208 1 1.74133 4.85341 46.0263 -3.50974
209 1 1.6612 2.90431 -1.23094 -3.45616
210 1 -0.0181573 4.69758 -1.01643 -3.51295
211 1 3.57116 2.98177 46.1149 -3.50178
212 1 5.42938 4.71537 -2.65988 -3.47112
213 1 5.41254 2.80315 -1.04311 -3.51802
214 1 3.36788 4.61316 -0.920449 -3.5004
215 1 7.25622 3.08899 46.0903 -3.49212
216 1 8.79141 4.98054 -2.73913 -3.47868
217 1 8.81901 2.96818 -0.902655 -3.46884
218 1 7.00574 4.8092 -0.779996 -3.46009
219 1 10.65 3.24952 -2.80647 -3.52613
220 1 12.4225 4.91384 -2.64923 -3.45529
221 1 12.2928 2.92717 -0.912922 -3.50973
222 1 10.4671 4.69454 -0.716295 -3.49072
223 1 13.8753 3.0612 45.9683 -3.46324
224 1 15.8006 4.62505 46.1051 -3.01455
225 1 15.9029 2.89029 -0.930519 -3.09167
226 1 14.3191 4.74677 -0.831628 -3.32384
227 1 -15.7629 6.53885 -1.19109 -2.84941
228 1 -14.0072 6.75379 45.7492 -3.34705
229 1 -12.3431 8.58481 46.0691 -3.42645
230 1 -12.3742 6.67548 -1.1652 -3.51744
231 1 -14.1197 8.34425 -0.821015 -3.10717
232 1 -10.5341 6.78961 46.0999 -3.49447
233 1 -8.75125 8.42776 45.9979 -3.48772
234 1 -8.7583 6.56549 -1.02896 -3.51286
235 1 -10.5497 8.40116 -1.00725 -3.43062
236 1 -7.01821 6.71973 45.8367 -3.48093
237 1 -5.14101 8.5886 45.9858 -3.50273
238 1 -5.46882 6.67301 -1.07646 -3.4762
239 1 -7.02225 8.39424 -1.0885 -3.44351
240 1 -3.52604 6.57841 45.9784 -3.48638
241 1 -1.63199 8.26043 -2.61199 -3.4619
242 1 -1.78023 6.41452 -0.851305 -3.48376
243 1 -3.528 8.43777 -0.902071 -3.52723
244 1 -0.0245561 6.59687 46.152 -3.47437
245 1 1.92853 8.35178 -2.57376 -3.49538
246 1 1.78974 6.46186 -0.990307 -3.4861
247 1 0.084455 8.23311 -0.775324 -3.47719
248 1 3.6179 6.48015 -2.78488 -3.52263
249 1 5.35033 8.31 -2.57786 -3.49123
250 1 5.23878 6.36554 -0.827608 -3.47892
251 1 3.58016 8.17007 -0.789931 -3.50045
252 1 7.00228 6.54512 -2.70268 -3.47321
253 1 8.92434 8.31545 -2.62637 -3.52414
254 1 8.75992 6.69581 -0.708517 -3.50291
255 1 7.00466 8.3786 -0.698496 -3.486
256 1 10.6186 6.62419 -2.6235 -3.47913
257 1 12.47 8.23571 -2.68638 -3.4552
258 1 12.4078 6.38115 -0.630204 -3.52661
259 1 10.6571 8.28456 -0.646007 -3.48865
260 1 14.2062 6.52343 -2.75419 -3.34865
261 1 15.9646 6.27561 -0.656301 -2.63805
262 1 14.326 8.131 -0.71018 -3.09251
263 1 -14.5464 9.25731 45.6374 -2.81063
264 1 -12.5879 11.0173 45.8177 -2.86803
265 1 -12.3055 10.1308 -0.793055 -3.26855
266 1 -10.4289 10.1856 -2.46011 -3.34401
267 1 -8.70483 11.9347 -2.66196 -3.34433
268 1 -8.72737 10.1397 -0.790421 -3.46524
269 1 -10.4525 11.9575 -0.76445 -3.2862
270 1 -6.98371 10.2073 -2.77149 -3.4861
271 1 -5.15123 11.8235 -2.61316 -3.53041
272 1 -5.33054 10.171 -0.580559 -3.49006
273 1 -7.16561 12.0527 -0.662638 -3.45111
274 1 -3.2903 10.2497 -2.61393 -3.42157
275 1 -1.71502 11.9123 -2.56907 -3.41976
276 1 -1.64018 10.0395 -0.644774 -3.48247
277 1 -3.35163 11.7848 -0.608465 -3.49934
278 1 0.0543072 10.0352 -2.5534 -3.52515
279 1 1.73373 12.0187 -2.36272 -3.46334
280 1 1.76947 10.0889 -0.591428 -3.47691
281 1 0.101123 11.7788 -0.67346 -3.45639
282 1 3.38744 10.321 -2.45551 -3.47656
283 1 5.43796 11.9578 -2.44971 -3.50265
284 1 5.25168 10.002 -0.701815 -3.502
285 1 3.47812 11.9127 -0.517905 -3.50299
286 1 7.09083 10.166 -2.50014 -3.48691
287 1 8.88988 11.8485 -2.35582 -3.41564
288 1 8.94635 9.98022 -0.681258 -3.52677
289 1 7.03017 11.7543 -0.476299 -3.51425
290 1 10.7026 10.1063 -2.52417 -3.51419
291 1 12.5471 11.7727 -2.44304 -2.8537
292 1 12.6102 9.78425 -0.615088 -3.30114
293 1 10.8166 11.6239 -0.563076 -3.34228
294 1 14.2553 9.86404 -2.44471 -2.69636
295 1 -10.8823 12.6621 45.6286 -2.69451
296 1 -8.77456 13.8335 -0.659247 -2.94653
297 1 -6.8941 13.6768 -2.5565 -3.25009
298 1 -5.1759 15.3806 -2.55131 -2.85849
299 1 -5.20084 13.4534 -0.606067 -3.41381
300 1 -6.68137 15.2876 -0.471917 -2.74438
301 1 -3.36951 13.5947 -2.37722 -3.47411
302 1 -1.82893 15.4368 -2.26617 -3.14009
303 1 -1.56202 13.5323 -0.418267 -3.42844
304 1 -3.53412 15.2142 -0.355747 -3.06808
305 1 -0.114622 13.7284 -2.27293 -3.4602
306 1 1.91704 15.5955 -2.34659 -3.11711
307 1 1.83064 13.7177 -0.39801 -3.47448
308 1 -0.0226764 15.4738 -0.495584 -3.21136
309 1 3.71718 13.8308 -2.2751 -3.48278
310 1 5.49701 15.5711 -2.17096 -2.95715
311 1 5.32724 13.4735 -0.32695 -3.44104
312 1 3.53723 15.4754 -0.340819 -3.01686
313 1 7.28519 13.6659 -2.22602 -3.37085
314 1 8.98429 13.3376 -0.463366 -3.12717
315 1 7.30374 15.0965 -0.156195 -2.72934
316 1 10.6923 13.4855 -2.25269 -2.76369
317 1 -0.103911 17.1517 -2.39074 -2.38094
318 1 -5.68041 -14.798 1.66957 -2.97632
319 1 -7.47002 -14.7262 3.56053 -2.72508
320 1 -2.28628 -15.0249 1.65001 -2.92384
321 1 -4.03984 -14.8042 3.68582 -2.85648
322 1 2.18473 -15.0732 0.102247 -2.99495
323 1 3.93656 -15.2341 2.13178 -2.59114
324 1 0.36742 -15.5812 1.91032 -2.67296
325 1 5.80945 -13.8447 2.27394 -3.05402
326 1 3.82085 -13.9587 4.258 -3.12623
327 1 7.5267 -13.9178 4.47471 -2.66448
328 1 -12.6407 -11.2439 1.39834 -2.86615
329 1 -10.9234 -13.0625 1.57253 -2.70298
330 1 -9.20143 -11.4605 1.68731 -3.35683
331 1 -9.3315 -13.2711 3.56221 -3.09406
332 1 -10.9846 -11.5071 3.48451 -3.26624
333 1 -7.44379 -13.0367 1.66828 -3.27499
334 1 -5.85374 -11.3688 1.80377 -3.48305
335 1 -5.74366 -13.0801 3.57402 -3.33094
336 1 -7.57848 -11.5022 3.78445 -3.49511
337 1 -3.96012 -13.1405 1.6408 -3.4621
338 1 -2.16205 -11.4212 1.90839 -3.48797
339 1 -2.23078 -13.4051 3.69737 -3.27987
340 1 -3.91886 -11.6123 3.72747 -3.49507
341 1 -0.365317 -13.148 1.7969 -3.46563
342 1 1.29731 -12.9307 -0.0167514 -3.44201
343 1 2.10782 -13.789 2.29596 -3.30757
344 1 -0.532781 -11.6564 3.81281 -3.4799
345 1 3.94704 -13.5104 0.337201 -3.23215
346 1 5.71154 -12.0431 0.508292 -3.38777
347 1 5.62202 -12.2577 4.24515 -3.42469
348 1 3.97376 -12.2577 2.46098 -3.4741
349 1 7.65028 -12.1416 2.44582 -3.35074
350 1 9.30893 -10.3928 2.69806 -3.4044
351 1 9.1085 -12.1838 4.43909 -3.08888
352 1 7.33644 -10.5308 4.57759 -3.48408
353 1 10.8289 -12.2021 2.64102 -2.69634
354 1 12.8715 -10.4156 2.57092 -2.7988
355 1 11.0018 -10.4182 4.60445 -3.33803
356 1 -14.2694 -9.20884 1.41688 -2.72658
357 1 -12.592 -7.73821 2.02706 -3.39603
358 1 -12.6717 -9.78222 3.46622 -3.24361
359 1 -14.3003 -7.9711 3.7455 -3.08219
360 1 -10.7382 -9.56836 1.89593 -3.50729
361 1 -9.07856 -7.7495 1.92936 -3.4404
362 1 -9.13979 -9.74402 3.75189 -3.46076
363 1 -10.8335 -7.80036 3.84673 -3.53423
364 1 -7.67087 -9.62836 1.80229 -3.44852
365 1 -5.79903 -7.97213 1.96665 -3.50642
366 1 -5.67347 -9.7154 3.90412 -3.5062
367 1 -7.35095 -7.95763 3.96477 -3.44344
368 1 -3.96304 -9.66729 2.03188 -3.51125
369 1 -2.11919 -9.45716 0.114471 -3.44108
370 1 -2.30638 -9.71112 3.91625 -3.52583
371 1 -4.00946 -7.86487 4.0985 -3.4964
372 1 -0.259255 -11.1424 -0.00674555 -3.48714
373 1 1.48269 -9.50422 -0.0273398 -3.47063
374 1 1.35017 -11.3116 1.98153 -3.48146
375 1 -0.439391 -9.76107 2.19216 -3.45187
376 1 3.19725 -11.2922 0.0474763 -3.46831
377 1 5.11575 -9.62931 0.186836 -3.48565
378 1 5.82927 -10.4637 2.57931 -3.51616
379 1 3.36384 -9.80158 2.1047 -3.50866
380 1 7.61974 -10.3827 0.585842 -3.51118
381 1 9.41014 -8.56478 0.701284 -3.53238
382 1 9.32678 -8.70127 4.62151 -3.48519
383 1 7.5823 -8.6368 2.86216 -3.48251
384 1 11.1348 -8.7048 2.6543 -3.48222
385 1 12.8842 -6.88856 2.74315 -3.39143
386 1 12.9449 -8.74457 4.55744 -3.30636
387 1 11.1089 -7.0387 4.81557 -3.48117
388 1 14.5843 -8.42631 2.81784 -2.69893
389 1 14.6376 -6.97547 4.85599 -3.08476
390 1 -15.7818 -4.09377 2.00467 -2.985
391 1 -16.1054 -5.88928 3.87504 -2.66485
392 1 -14.39 -6.10566 2.00732 -3.33468
393 1 -12.4531 -4.31083 2.16906 -3.51506
394 1 -12.5938 -5.96238 3.95306 -3.48591
395 1 -14.2648 -4.13432 4.06969 -3.46286
396 1 -10.7195 -5.98311 2.12706 -3.48798
397 1 -8.92956 -4.15377 2.2393 -3.51448
398 1 -8.91095 -6.15413 4.17513 -3.47513
399 1 -10.7089 -4.34907 4.15656 -3.49326
400 1 -7.4154 -6.06156 2.07083 -3.47948
401 1 -5.56847 -5.98181 0.324317 -3.48678
402 1 -5.74645 -6.15575 4.14954 -3.4682
403 1 -7.2622 -4.24983 4.31367 -3.4837
404 1 -3.82485 -7.70104 0.208174 -3.511
405 1 -2.09562 -5.8581 0.399715 -3.49436
406 1 -2.19562 -7.74826 2.12691 -3.46658
407 1 -3.81279 -5.98859 2.18148 -3.44413
408 1 -0.387239 -7.92495 0.241373 -3.47406
409 1 1.50478 -6.17489 0.242924 -3.45137
410 1 1.48956 -7.97166 1.98805 -3.52759
411 1 -0.331707 -6.25472 2.05909 -3.46863
412 1 3.44009 -7.80941 0.333242 -3.50116
413 1 5.29254 -6.03122 0.589319 -3.49977
414 1 5.17105 -8.07392 2.22836 -3.50753
415 1 3.36572 -6.14654 2.388 -3.49941
416 1 6.96794 -7.95708 0.34468 -3.5105
417 1 8.6292 -6.14456 0.306571 -3.50263
418 1 9.38855 -6.92505 2.75775 -3.49105
419 1 6.9375 -6.27106 2.42285 -3.50525
420 1 11.1107 -6.6853 0.821601 -3.49198
421 1 13.0179 -4.92084 0.991218 -3.45878
422 1 12.9628 -5.28654 4.8786 -3.50539
423 1 11.3172 -5.09072 2.79811 -3.47963
424 1 14.8065 -5.23307 2.92859 -3.33865
425 1 16.2473 -3.23938 3.0885 -3.02008
426 1 16.2524 -4.91993 4.97591 -2.73538
427 1 14.5914 -3.28577 5.20947 -3.42118
428 1 -16.0195 -0.631353 2.36568 -3.1055
429 1 -16.0129 -2.39311 4.11002 -3.02091
430 1 -14.1988 -2.35087 2.13848 -3.42162
431 1 -12.4016 -0.628507 2.47563 -3.49873
432 1 -12.3432 -2.57405 4.07985 -3.46635
433 1 -14.1014 -0.912293 4.37359 -3.47762
434 1 -10.5914 -2.30655 2.31055 -3.48245
435 1 -8.88053 -2.34182 0.36689 -3.45621
436 1 -8.89489 -2.51215 4.34511 -3.47261
437 1 -10.6727 -0.840383 4.45671 -3.49704
438 1 -7.26971 -4.12396 0.287982 -3.50912
439 1 -5.52525 -2.34171 0.434557 -3.4591
440 1 -5.64051 -4.31004 2.33428 -3.49618
441 1 -7.16226 -2.44441 2.44178 -3.50296
442 1 -3.87181 -4.10753 0.421464 -3.48346
443 1 -1.87026 -2.52423 0.367837 -3.50078
444 1 -2.07544 -4.44207 2.47102 -3.46288
445 1 -3.74768 -2.66642 2.55646 -3.50087
446 1 -0.186273 -4.31203 0.50497 -3.48127
447 1 1.52467 -2.42868 0.500011 -3.47043
448 1 1.5334 -4.51039 2.3336 -3.49838
449 1 -0.296336 -2.69506 2.46846 -3.5254
450 1 3.28251 -4.23719 0.413424 -3.4728
451 1 5.10181 -2.57543 0.533888 -3.48954
452 1 5.21939 -4.24421 2.4193 -3.49515
453 1 3.18839 -2.67833 2.44841 -3.49558
454 1 7.05042 -4.38457 0.519764 -3.45137
455 1 8.91545 -2.82911 0.615507 -3.4512
456 1 8.77557 -4.6067 2.45643 -3.483
457 1 7.14097 -2.74432 2.44734 -3.4936
458 1 10.587 -4.4021 0.431807 -3.41216
459 1 12.2374 -2.5331 0.735358 -3.48156
460 1 13.0591 -3.28396 3.15413 -3.53408
461 1 10.6235 -2.61754 2.64851 -3.50887
462 1 14.6468 -3.28122 1.05771 -3.31147
463 1 16.3881 -1.48841 1.25288 -3.05292
464 1 16.4331 -1.60029 5.16136 -2.9998
465 1 14.5867 -1.43714 3.29383 -3.39496
466 1 -17.4541 1.34714 2.56679 -2.51306
467 1 -15.9113 3.11841 2.39831 -3.18828
468 1 -16.0122 0.715089 4.51731 -3.19282
469 1 -14.1802 1.18363 2.51051 -3.51148
470 1 -12.3754 0.99094 0.555379 -3.51181
471 1 -12.4516 0.920971 4.51747 -3.50414
472 1 -14.2194 2.59239 4.48681 -3.42989
473 1 -10.5724 -0.629667 0.574289 -3.45492
474 1 -8.92958 1.11425 0.742321 -3.47003
475 1 -8.84066 -0.669966 2.60679 -3.47474
476 1 -10.5559 1.01762 2.59305 -3.46224
477 1 -7.14614 -0.643721 0.494681 -3.4842
478 1 -5.39394 1.24124 0.623611 -3.48446
479 1 -5.34052 -0.657316 2.43646 -3.49184
480 1 -7.02104 1.00921 2.60128 -3.4866
481 1 -3.49188 -0.622202 0.620349 -3.46697
482 1 -1.85181 1.08392 0.679393 -3.4618
483 1 -1.95119 -0.872965 2.50106 -3.48836
484 1 -3.53852 0.983191 2.58188 -3.46997
485 1 -0.0586305 -0.738281 0.588078 -3.47621
486 1 1.67549 1.14084 0.687271 -3.53376
487 1 1.47624 -0.908998 2.56247 -3.47646
488 1 -0.085387 0.911082 2.67881 -3.48506
489 1 3.38549 -0.716738 0.698133 -3.50097
490 1 5.226 0.899827 0.749738 -3.51294
491 1 5.11375 -0.993979 2.54593 -3.50081
492 1 3.49559 0.88362 2.60338 -3.48983
493 1 7.06772 -0.867715 0.592704 -3.51002
494 1 8.67893 1.00032 0.788032 -3.49563
495 1 8.80257 -0.84634 2.45781 -3.47376
496 1 6.92036 0.73794 2.7322 -3.5015
497 1 10.4816 -0.90627 0.730081 -3.45586
498 1 12.2626 0.959022 0.805063 -3.5073
499 1 12.2676 -0.807683 2.85479 -3.48532
500 1 10.5174 0.953986 2.79292 -3.48393
501 1 14.0054 -0.794981 0.858459 -3.52256
502 1 15.7719 1.00463 0.925413 -3.21609
503 1 16.3388 0.178791 3.29785 -2.97067
504 1 14.1881 1.01409 2.89078 -3.41262
505 1 17.2591 0.90752 -1.02826 -2.55154
506 1 -15.9194 4.74346 0.374654 -2.96578
507 1 -15.3539 4.59646 4.56931 -3.14489
508 1 -14.0746 2.84894 0.496112 -3.51831
509 1 -12.4431 4.87437 0.602459 -3.40742
510 1 -12.3133 2.71304 2.55451 -3.4418
511 1 -13.9451 4.53238 2.43724 -3.31255
512 1 -10.8268 2.8799 0.678433 -3.50949
513 1 -8.90918 4.58038 0.792869 -3.51194
514 1 -9.02805 2.85419 2.66604 -3.4593
515 1 -10.6772 4.45834 2.60334 -3.44282
516 1 -7.22022 2.71827 0.769335 -3.44097
517 1 -5.3543 4.70688 0.816097 -3.51001
518 1 -5.34573 2.79474 2.79443 -3.51331
519 1 -7.07489 4.5876 2.59702 -3.51588
520 1 -3.59743 2.94576 0.853748 -3.51521
521 1 -1.82114 4.62537 1.02644 -3.49446
522 1 -1.97877 2.84697 2.82588 -3.47993
523 1 -3.6363 4.74383 2.80021 -3.46536
524 1 -0.193936 2.83725 0.798338 -3.4712
525 1 1.52427 4.57596 1.00528 -3.48736
526 1 1.65042 2.65205 2.8677 -3.47456
527 1 -0.101443 4.43339 2.90271 -3.5065
528 1 3.45276 2.92966 0.8423 -3.50712
529 1 5.36214 4.55966 0.962854 -3.46524
530 1 5.19069 2.66554 2.79634 -3.5013
531 1 3.362 4.47563 2.75551 -3.46495
532 1 6.91557 2.76102 1.01722 -3.47514
533 1 8.7685 4.49019 1.10746 -3.50547
534 1 8.71553 2.59716 2.90996 -3.49516
535 1 6.92043 4.48683 3.03881 -3.48418
536 1 10.5299 2.67376 0.916918 -3.48779
537 1 12.3622 4.48135 0.981621 -3.51239
538 1 12.2388 2.72591 2.80149 -3.48142
539 1 10.4523 4.37804 2.90469 -3.48116
540 1 14.0918 2.6558 1.08623 -3.42463
541 1 15.8285 4.4802 1.02624 -2.98392
542 1 15.9662 2.66442 3.05916 -3.07885
543 1 14.2805 4.43703 2.91827 -3.41537
544 1 -15.6547 6.11396 2.58539 -2.79887
545 1 -14.0916 6.44949 0.710832 -3.27582
546 1 -12.2856 8.34261 0.937806 -3.4768
547 1 -12.3718 6.21492 2.8234 -3.45857
548 1 -14.165 8.22967 2.80069 -3.07171
549 1 -10.5912 6.42492 0.849968 -3.53247
550 1 -8.79944 8.24817 0.906839 -3.48145
551 1 -8.8018 6.33795 2.76008 -3.53613
552 1 -10.6878 8.00971 2.97486 -3.44157
553 1 -7.17054 6.39928 0.890875 -3.4914
554 1 -5.27127 8.16979 1.03462 -3.4951
555 1 -5.29879 6.40405 2.87276 -3.43914
556 1 -6.93591 8.06928 2.84359 -3.45344
557 1 -3.48172 6.46281 0.906447 -3.46994
558 1 -1.66117 8.16134 0.945182 -3.44627
559 1 -1.85634 6.55795 2.9143 -3.51274
560 1 -3.59361 8.30532 3.14999 -3.47628
561 1 -0.040591 6.38851 0.884638 -3.46696
562 1 1.85345 8.09283 1.10237 -3.52103
563 1 1.75245 6.2474 3.02415 -3.46782
564 1 -0.00078399 8.16379 2.97755 -3.45831
565 1 3.51291 6.2317 1.0676 -3.53198
566 1 5.38706 8.13154 1.1636 -3.45313
567 1 5.32664 6.35829 2.95523 -3.50835
568 1 3.44604 7.94912 3.10083 -3.47897
569 1 7.0634 6.53158 1.14403 -3.47683
570 1 8.82782 8.29967 1.25991 -3.46382
571 1 8.79113 6.15741 3.11017 -3.50221
572 1 7.03193 8.0944 3.17824 -3.4983
573 1 10.5147 6.46415 1.23127 -3.53062
574 1 12.5777 8.13856 1.26459 -3.46446
575 1 12.4137 6.20649 2.97862 -3.51893
576 1 10.6902 8.0433 3.11756 -3.51492
577 1 14.2211 6.28129 1.21109 -3.35477
578 1 16.1712 5.89891 3.15857 -2.63887
579 1 14.5477 7.79448 3.35388 -3.04308
580 1 -14.0326 10.1973 1.11553 -2.64233
581 1 -12.0684 11.8527 1.15183 -2.85421
582 1 -12.4414 9.91342 2.91964 -3.29477
583 1 -10.5137 10.0068 0.893531 -3.44523
584 1 -8.69019 11.8182 1.28885 -3.43179
585 1 -8.88551 9.71054 2.94647 -3.52547
586 1 -10.5639 11.7791 2.98887 -3.24673
587 1 -7.02163 9.84674 1.07431 -3.44585
588 1 -5.39362 11.7982 1.25699 -3.51629
589 1 -5.31451 9.9332 3.03289 -3.48146
590 1 -7.00446 11.6963 3.20177 -3.44117
591 1 -3.37583 10.0778 1.13528 -3.52627
592 1 -1.49692 11.7812 1.34105 -3.52053
593 1 -1.62131 9.82999 2.98183 -3.47659
594 1 -3.40303 11.5668 3.11907 -3.49033
595 1 0.107503 9.80804 1.08692 -3.44363
596 1 1.79114 11.7145 1.40062 -3.5206
597 1 1.87748 9.78324 2.98654 -3.44384
598 1 0.198924 11.6078 3.18108 -3.51632
599 1 3.64764 9.78014 1.29735 -3.48834
600 1 5.38549 11.6325 1.30792 -3.48996
601 1 5.24921 9.68941 3.27027 -3.53369
602 1 3.48819 11.5162 3.25879 -3.46447
603 1 7.1156 9.8924 1.33973 -3.47585
604 1 8.96804 11.55 1.40493 -3.48158
605 1 8.92419 9.9202 3.27588 -3.5021
606 1 7.13056 11.5268 3.27997 -3.48463
607 1 10.7193 9.81331 1.27665 -3.46909
608 1 12.6682 11.2904 1.3842 -2.87013
609 1 12.5937 9.757 3.42544 -3.30079
610 1 10.8217 11.5238 3.28794 -3.33897
611 1 14.4942 9.65933 1.30774 -2.59962
612 1 -10.2737 13.6004 1.26717 -2.74419
613 1 -8.71325 13.3285 3.20262 -3.05502
614 1 -7.17528 13.6334 1.31389 -3.30794
615 1 -5.31026 15.1748 1.61075 -2.97426
616 1 -5.0867 13.2924 3.20186 -3.43418
617 1 -6.94933 15.0164 3.52364 -2.74382
618 1 -3.37708 13.3414 1.34602 -3.42594
619 1 -1.87847 15.1168 1.42415 -3.06975
620 1 -1.65821 13.3472 3.43483 -3.48285
621 1 -3.40968 15.0698 3.52268 -3.01243
622 1 0.190324 13.5894 1.43085 -3.44539
623 1 1.81176 15.1812 1.55255 -3.03466
624 1 1.99382 13.4493 3.35264 -3.48729
625 1 0.0573393 15.0973 3.61632 -3.2188
626 1 3.64393 13.6768 1.39498 -3.38611
627 1 5.34336 15.4162 1.56094 -2.90568
628 1 5.29963 13.2244 3.28392 -3.46225
629 1 3.77968 15.1828 3.28513 -2.96077
630 1 7.16845 13.4119 1.61202 -3.30661
631 1 8.86058 13.2244 3.25844 -3.11605
632 1 6.99707 15.0526 3.31364 -2.7411
633 1 10.8149 13.1793 1.35596 -2.69787
634 1 -0.0909866 16.6533 1.54419 -2.38186
635 1 -5.65986 -14.8365 5.57787 -2.89942
636 1 -7.4258 -15.251 7.48949 -2.4844
637 1 -1.09191 -14.0697 5.98425 -2.98569
638 1 -3.36696 -14.2143 8.25048 -2.92655
639 1 0.355779 -14.0763 3.96886 -3.12115
640 1 1.92397 -14.2213 5.97961 -3.00185
641 1 0.468268 -14.0295 8.01572 -3.1193
642 1 5.59135 -14.0126 6.19778 -2.96036
643 1 3.58281 -14.219 8.09728 -3.03012
644 1 7.19666 -14.0081 8.28788 -2.75068
645 1 -12.5888 -11.618 5.41046 -2.8204
646 1 -10.9507 -13.419 5.70046 -2.65663
647 1 -9.39262 -11.6531 5.61126 -3.40761
648 1 -9.29459 -13.7512 7.65388 -3.00249
649 1 -10.9755 -11.6326 7.48565 -3.32414
650 1 -7.78105 -13.6007 5.55764 -3.2677
651 1 -5.76742 -11.9529 5.70089 -3.46064
652 1 -5.75211 -13.3985 7.51123 -3.26765
653 1 -7.7751 -11.9289 7.63996 -3.44664
654 1 -3.71225 -13.3747 5.70263 -3.31014
655 1 -1.99712 -11.5988 5.68414 -3.47399
656 1 -1.52847 -12.6345 7.95922 -3.42475
657 1 -3.9539 -11.7321 7.5387 -3.45215
658 1 0.415353 -12.2074 6.14237 -3.38353
659 1 1.92048 -12.1268 4.28432 -3.47248
660 1 2.03637 -12.3215 8.30602 -3.32763
661 1 0.186723 -10.7328 8.22642 -3.53076
662 1 3.68755 -12.4248 6.24989 -3.48876
663 1 5.55162 -10.6056 6.49914 -3.50439
664 1 5.50569 -12.2694 8.25316 -3.47147
665 1 3.58579 -10.6135 8.15379 -3.42972
666 1 7.3212 -12.374 6.33223 -3.33726
667 1 9.11625 -10.5052 6.42584 -3.48961
668 1 9.04592 -12.3784 8.25647 -3.13276
669 1 7.43014 -10.557 8.42548 -3.47979
670 1 10.7047 -12.31 6.3324 -2.70171
671 1 12.6487 -10.4961 6.69797 -2.82714
672 1 10.829 -10.6704 8.48357 -3.31098
673 1 -14.2327 -9.60347 5.66691 -2.70437
674 1 -12.539 -7.86389 5.71816 -3.43662
675 1 -12.627 -9.86274 7.57992 -3.32229
676 1 -14.4105 -7.90442 7.53406 -3.09749
677 1 -10.7612 -9.72523 5.76097 -3.4294
678 1 -8.91862 -8.1921 5.77644 -3.42243
679 1 -9.15702 -9.98675 7.72486 -3.48888
680 1 -10.817 -8.07189 7.64084 -3.39464
681 1 -7.28376 -9.94052 5.85132 -3.49
682 1 -5.55082 -8.1446 6.01456 -3.50343
683 1 -5.72106 -10.0169 7.7616 -3.48113
684 1 -7.38623 -8.21603 7.83444 -3.51382
685 1 -3.99478 -9.99089 5.88136 -3.50699
686 1 -2.18669 -8.16087 5.97624 -3.51586
687 1 -2.1043 -10.0173 7.79126 -3.51841
688 1 -3.85667 -8.27032 7.96434 -3.50237
689 1 -0.377855 -9.69919 5.78165 -3.4899
690 1 1.56099 -9.73262 3.78968 -3.46444
691 1 1.98158 -10.52 6.29162 -3.45224
692 1 -0.267005 -8.3443 7.84654 -3.46415
693 1 3.91844 -10.4924 4.47804 -3.53032
694 1 5.66042 -8.80748 4.70264 -3.48335
695 1 5.56216 -8.89694 8.43178 -3.5113
696 1 3.91512 -8.64329 6.44901 -3.49104
697 1 7.31955 -8.83373 6.61491 -3.49451
698 1 9.10451 -7.09197 6.69294 -3.52636
699 1 9.26614 -8.86842 8.45073 -3.48344
700 1 7.29895 -7.20922 8.71555 -3.51596
701 1 11.1317 -8.6841 6.54805 -3.4426
702 1 12.8767 -7.07476 6.71637 -3.38897
703 1 12.6976 -8.98741 8.5278 -3.32215
704 1 10.863 -7.11454 8.65034 -3.43162
705 1 14.4508 -8.78548 6.56912 -2.72675
706 1 14.4905 -7.32604 8.67474 -3.07325
707 1 -16.1478 -4.33936 5.94078 -2.94214
708 1 -15.9862 -6.01055 7.79 -2.7473
709 1 -14.5461 -6.09213 5.65669 -3.29125
710 1 -12.4472 -4.50254 5.92413 -3.45658
711 1 -12.4193 -6.46064 7.68984 -3.39137
712 1 -14.0682 -4.48417 7.91008 -3.45223
713 1 -10.768 -6.11548 5.84984 -3.43873
714 1 -9.029 -4.35344 6.16812 -3.52522
715 1 -9.23695 -6.34889 8.03215 -3.49017
716 1 -10.8324 -4.46408 8.13228 -3.52639
717 1 -7.3909 -6.31628 6.01907 -3.48232
718 1 -5.68525 -4.52908 6.18849 -3.52708
719 1 -5.59456 -6.48563 7.92105 -3.51468
720 1 -7.33743 -4.53229 8.06455 -3.51076
721 1 -3.83691 -6.25113 6.07944 -3.46778
722 1 -2.09384 -6.33688 4.15629 -3.49444
723 1 -1.99362 -6.59937 7.98459 -3.52658
724 1 -3.77082 -4.70918 8.06323 -3.52912
725 1 -0.389501 -8.06214 3.90274 -3.48617
726 1 1.56289 -6.2759 4.06012 -3.46307
727 1 1.54831 -8.12122 5.85677 -3.48104
728 1 -0.233379 -6.49703 6.02631 -3.53607
729 1 3.36659 -7.99341 4.03882 -3.49566
730 1 5.22672 -6.22332 4.29216 -3.50322
731 1 5.71098 -6.95697 6.72292 -3.4867
732 1 3.38056 -6.34189 6.05934 -3.47726
733 1 7.437 -6.99985 4.83257 -3.48022
734 1 9.26574 -5.35492 4.75999 -3.47404
735 1 9.1519 -5.50406 8.70834 -3.48137
736 1 7.40022 -5.2214 6.78809 -3.47993
737 1 11.0651 -5.41566 6.81489 -3.52375
738 1 12.8566 -3.64423 6.92538 -3.5152
739 1 12.817 -5.5323 8.67791 -3.5267
740 1 10.8774 -3.71635 8.7848 -3.50772