ITEM: TIMESTEP
58000
ITEM: NUMBER OF ATOMS
3804
ITEM: BOX BOUNDS ss ss pp
-1.7714147832454199e+01 1.7829655230439290e+01
-1.7834704744021384e+01 1.7655293971114361e+01
-1.2580199999999999e+00 4.4638020000000004e+01
ITEM: ATOMS id type x y z c_peratom
1 1 -5.16151 -16.0913 -1.23847 -2.96658
2 1 -6.92431 -16.1981 0.640305 -2.65979
3 1 -1.84342 -15.9118 44.5017 -3.14829
4 1 -3.56595 -16.0988 0.540232 -3.02023
5 1 -0.00293882 -17.5151 44.7264 -2.36458
6 1 1.79641 -16.1191 44.5498 -3.09233
7 1 0.128516 -15.9125 0.593093 -3.21312
8 1 5.4229 -15.9161 44.6482 -2.96987
9 1 3.66909 -15.9652 0.426939 -3.03096
10 1 7.27622 -15.8526 0.346943 -2.65352
11 1 -12.3001 -12.3898 -1.1538 -2.86361
12 1 -10.5139 -14.1445 44.5985 -2.7232
13 1 -8.70033 -12.3403 -1.35052 -3.43473
14 1 -8.70051 -14.3356 0.377613 -3.10193
15 1 -10.513 -12.4937 0.702528 -3.31341
16 1 -6.85158 -14.383 -1.3071 -3.32591
17 1 -5.27921 -12.465 -1.21112 -3.49231
18 1 -5.1775 -14.1914 0.745745 -3.47791
19 1 -7.03019 -12.4724 0.691076 -3.50925
20 1 -3.58551 -14.1795 44.714 -3.46619
21 1 -1.75095 -12.5223 44.5477 -3.48796
22 1 -1.75226 -14.3723 0.696256 -3.45404
23 1 -3.44643 -12.4232 0.591806 -3.52122
24 1 -0.044503 -14.2513 44.4914 -3.52076
25 1 1.86093 -12.4504 44.361 -3.46498
26 1 1.83693 -14.1005 0.387764 -3.48586
27 1 -0.139931 -12.449 0.561783 -3.47346
28 1 3.60449 -14.3147 44.4153 -3.46247
29 1 5.42094 -12.4628 44.5389 -3.51062
30 1 5.40374 -14.1748 0.520468 -3.47147
31 1 3.55553 -12.4674 0.524136 -3.48375
32 1 7.03832 -14.1628 44.4804 -3.33021
33 1 8.96308 -12.3157 44.4385 -3.44694
34 1 8.95174 -14.0799 0.228629 -3.06133
35 1 7.23634 -12.3407 0.572394 -3.49654
36 1 10.559 -14.118 44.411 -2.71295
37 1 12.5291 -12.4686 44.4143 -2.83935
38 1 10.6452 -12.322 0.439365 -3.38265
39 1 -14.1835 -10.4285 44.6851 -2.70553
40 1 -12.4192 -8.92031 -1.17292 -3.41543
41 1 -12.5064 -10.7343 0.68232 -3.29356
42 1 -14.1489 -9.05593 0.839576 -3.08053
43 1 -10.6346 -10.6434 -1.07088 -3.47567
44 1 -8.69878 -8.8962 -1.2072 -3.49908
45 1 -8.66331 -10.5525 0.648113 -3.49622
46 1 -10.5466 -8.98214 0.611319 -3.45115
47 1 -7.04078 -10.6247 -1.27085 -3.4597
48 1 -5.22683 -8.74577 44.5251 -3.49263
49 1 -5.25048 -10.6005 0.588079 -3.52346
50 1 -6.92117 -8.83091 0.634918 -3.4928
51 1 -3.52469 -10.6817 -1.23966 -3.50298
52 1 -1.82391 -8.95659 44.6114 -3.5196
53 1 -1.70271 -10.6658 0.520205 -3.46896
54 1 -3.61778 -8.71933 0.67451 -3.50534
55 1 -0.0600287 -10.7315 44.4358 -3.48466
56 1 1.79646 -8.98476 44.5239 -3.5253
57 1 1.7932 -10.7977 0.695159 -3.49726
58 1 0.0161641 -8.84426 0.617613 -3.45626
59 1 3.46385 -10.7862 44.5377 -3.45292
60 1 5.2861 -8.90651 44.4387 -3.50579
61 1 5.43427 -10.617 0.352272 -3.49782
62 1 3.61228 -9.05772 0.485541 -3.48501
63 1 7.28534 -10.534 44.5402 -3.51942
64 1 9.01969 -8.83417 44.764 -3.45215
65 1 8.85416 -10.4975 0.667186 -3.46247
66 1 7.02003 -8.70363 0.628111 -3.5186
67 1 10.7683 -10.6084 44.4653 -3.49937
68 1 12.4524 -8.83688 44.4413 -3.42107
69 1 12.5679 -10.6105 0.343691 -3.28613
70 1 10.7295 -9.00131 0.550562 -3.46497
71 1 14.2209 -10.4104 44.621 -2.71738
72 1 14.2444 -8.73677 0.508947 -3.12917
73 1 -15.899 -5.28895 44.808 -2.95739
74 1 -15.7028 -6.89372 0.807361 -2.73239
75 1 -14.2809 -7.15336 -1.13304 -3.34189
76 1 -12.4197 -5.37261 -1.22456 -3.47437
77 1 -12.3011 -7.31051 0.743986 -3.50684
78 1 -13.9321 -5.38218 0.789829 -3.43429
79 1 -10.5669 -7.25392 -1.15855 -3.52251
80 1 -8.85534 -5.26422 -1.1847 -3.51155
81 1 -8.80616 -7.23591 0.667303 -3.50194
82 1 -10.7498 -5.38464 0.564138 -3.49201
83 1 -7.01606 -6.95144 44.7311 -3.53139
84 1 -5.26639 -5.18383 -1.12827 -3.45609
85 1 -5.36273 -6.93524 0.670723 -3.44803
86 1 -7.16205 -5.27871 0.968797 -3.46924
87 1 -3.58635 -7.07263 44.6079 -3.49057
88 1 -1.81561 -5.36895 44.6603 -3.48419
89 1 -1.74152 -7.08757 0.587979 -3.52787
90 1 -3.64399 -5.33072 0.647246 -3.44272
91 1 0.070232 -7.13446 44.6053 -3.52993
92 1 1.88734 -5.38537 -1.29202 -3.45065
93 1 1.74245 -7.26123 0.525371 -3.46306
94 1 0.101842 -5.41988 0.757628 -3.51198
95 1 3.52473 -7.1462 44.4057 -3.473
96 1 5.26792 -5.33191 -1.32813 -3.5031
97 1 5.05662 -7.07682 0.570276 -3.46094
98 1 3.39859 -5.24436 0.839646 -3.46516
99 1 7.0653 -7.19151 44.7003 -3.48539
100 1 8.86893 -5.45178 44.4966 -3.50759
101 1 8.9829 -7.09005 0.764076 -3.46852
102 1 7.05542 -5.57439 0.676232 -3.51564
103 1 10.6887 -7.18306 44.476 -3.46903
104 1 12.4467 -5.25756 44.4916 -3.51857
105 1 12.3806 -7.22952 0.5011 -3.44995
106 1 10.6503 -5.387 0.480485 -3.48941
107 1 14.3345 -7.12602 44.5228 -3.34822
108 1 16.2176 -5.26541 -1.43932 -2.92669
109 1 15.9613 -6.77553 0.386056 -2.68953
110 1 14.1092 -5.4184 0.574555 -3.39507
111 1 -15.7338 -1.90698 44.6284 -3.11756
112 1 -15.8718 -3.45967 0.704478 -2.98087
113 1 -14.0523 -3.58571 -1.21927 -3.43704
114 1 -12.4084 -1.75645 -1.34146 -3.5326
115 1 -12.2518 -3.51217 0.794235 -3.44683
116 1 -14.2302 -1.85989 0.605952 -3.4027
117 1 -10.6337 -3.54676 -1.12898 -3.4873
118 1 -8.92207 -1.8112 -1.25065 -3.52894
119 1 -8.97305 -3.65768 0.707292 -3.50274
120 1 -10.7297 -1.76035 0.573217 -3.45377
121 1 -7.06128 -3.5985 -1.18941 -3.45135
122 1 -5.46103 -1.75272 -1.1017 -3.44871
123 1 -5.29232 -3.65204 0.893687 -3.42607
124 1 -7.03676 -2.01578 0.60027 -3.4454
125 1 -3.49007 -3.55823 -1.28616 -3.50692
126 1 -1.73709 -1.83218 -1.25941 -3.50002
127 1 -1.69655 -3.68246 0.674991 -3.54326
128 1 -3.42179 -1.75828 0.604566 -3.5145
129 1 -0.0319268 -3.67718 -1.25193 -3.52393
130 1 1.76477 -1.7178 -1.17361 -3.53118
131 1 1.61498 -3.44144 0.674528 -3.47074
132 1 -0.0407762 -1.70672 0.692058 -3.51666
133 1 3.42731 -3.6494 44.618 -3.4585
134 1 5.35033 -1.93951 -1.28738 -3.53008
135 1 5.36165 -3.70466 0.700274 -3.50888
136 1 3.56466 -1.98306 0.556915 -3.48937
137 1 7.04695 -3.70374 44.7118 -3.48328
138 1 8.97182 -1.63873 44.6601 -3.46027
139 1 8.89552 -3.6828 0.587573 -3.53899
140 1 7.15825 -1.83992 0.647435 -3.51922
141 1 10.65 -3.51198 -1.3115 -3.52055
142 1 12.6578 -1.91449 44.4586 -3.49327
143 1 12.3651 -3.48282 0.663989 -3.45108
144 1 10.7537 -1.80458 0.596971 -3.47553
145 1 14.3997 -3.69195 -1.24221 -3.41393
146 1 16.1295 -2.11505 -1.25295 -3.0605
147 1 15.9962 -3.70619 0.71442 -3.05555
148 1 14.2898 -1.94596 0.649197 -3.44781
149 1 -17.3733 0.0360906 44.4486 -2.36349
150 1 -15.9985 1.81375 44.5709 -3.0743
151 1 -16.0097 -0.0616744 0.502488 -3.21027
152 1 -14.2618 0.0587559 44.5693 -3.54042
153 1 -12.2509 1.71424 44.5655 -3.47475
154 1 -12.4622 0.00996092 0.589732 -3.53281
155 1 -14.1437 1.87002 0.564134 -3.4585
156 1 -10.5434 0.109331 44.638 -3.43311
157 1 -8.92829 1.78672 -1.17234 -3.42867
158 1 -8.82915 -0.214119 0.740879 -3.50894
159 1 -10.4824 1.60315 0.763893 -3.48175
160 1 -7.0408 0.125705 -1.06478 -3.51187
161 1 -5.27445 1.87152 -1.20245 -3.49748
162 1 -5.16448 0.0402106 0.693154 -3.48447
163 1 -7.1214 1.73672 0.708649 -3.49865
164 1 -3.63759 -0.0669244 44.6836 -3.51623
165 1 -1.78521 1.78129 44.7492 -3.50193
166 1 -1.82161 0.0817825 0.713671 -3.47388
167 1 -3.54343 1.81169 0.665534 -3.49996
168 1 -0.0537318 0.032123 44.736 -3.46779
169 1 1.72823 1.65514 -1.35084 -3.5229
170 1 1.87838 0.0825329 0.740362 -3.51106
171 1 -0.0904737 1.68501 0.615888 -3.43779
172 1 3.61851 -0.0304163 -1.30908 -3.48791
173 1 5.39684 1.66777 44.5962 -3.47996
174 1 5.26683 -0.0967525 0.535315 -3.51873
175 1 3.60793 1.74402 0.624375 -3.4879
176 1 7.14096 -0.0536857 44.6916 -3.48913
177 1 8.97296 1.70221 -1.25295 -3.5353
178 1 8.89421 -0.133832 0.678621 -3.47765
179 1 7.18537 1.67531 0.645733 -3.50344
180 1 10.7937 -0.0238557 -1.31505 -3.50518
181 1 12.4649 1.82398 44.6415 -3.51361
182 1 12.6534 -0.0363376 0.453051 -3.54927
183 1 10.6837 1.63415 0.681718 -3.53531
184 1 14.3993 -0.0147093 44.6163 -3.47673
185 1 16.0157 1.95344 -1.25803 -3.08216
186 1 15.7374 -0.0756727 0.63947 -3.16254
187 1 14.2821 1.95457 0.685603 -3.44691
188 1 17.2607 -0.0533802 -1.13544 -2.45472
189 1 -15.8404 5.09673 44.5245 -2.96663
190 1 -15.8964 3.67294 0.454127 -2.9923
191 1 -14.0314 3.49037 -1.3543 -3.46442
192 1 -12.1886 5.2632 -1.19383 -3.51548
193 1 -12.3444 3.42753 0.721608 -3.49378
194 1 -14.0456 5.33042 0.588657 -3.46036
195 1 -10.5947 3.40404 -1.07543 -3.43562
196 1 -8.86929 5.37696 -1.16911 -3.4911
197 1 -8.9449 3.51267 0.760288 -3.51241
198 1 -10.6902 5.2993 0.848083 -3.517
199 1 -7.14412 3.5863 -1.2011 -3.51015
200 1 -5.41352 5.27021 44.5118 -3.44115
201 1 -5.46926 3.58268 0.564716 -3.49912
202 1 -7.21122 5.37199 0.765144 -3.52194
203 1 -3.62167 3.59277 44.6536 -3.49071
204 1 -1.68499 5.2156 -1.12325 -3.44341
205 1 -1.71362 3.5035 0.701263 -3.50958
206 1 -3.62339 5.21281 0.576812 -3.51681
207 1 -0.029004 3.47833 -1.11727 -3.4745
208 1 1.91766 5.224 -1.27585 -3.51417
209 1 1.69373 3.45009 0.722977 -3.52902
210 1 0.0437587 5.35739 0.596858 -3.49948
211 1 3.66915 3.46431 -1.26671 -3.49023
212 1 5.20278 5.28917 44.5072 -3.47693
213 1 5.39217 3.48759 0.59504 -3.50538
214 1 3.5296 5.27796 0.561146 -3.48166
215 1 7.10149 3.44943 44.6502 -3.53803
216 1 8.85476 5.23521 -1.25004 -3.51456
217 1 8.9206 3.48707 0.534038 -3.53411
218 1 7.09753 5.31818 0.517478 -3.51656
219 1 10.7382 3.64881 -1.155 -3.48714
220 1 12.4127 5.43064 -1.14414 -3.49449
221 1 12.3922 3.49472 0.814599 -3.47752
222 1 10.6761 5.33587 0.605197 -3.48348
223 1 14.2442 3.70079 -1.32496 -3.43521
224 1 15.9766 5.40761 44.5956 -2.9988
225 1 16.0834 3.7746 0.610297 -3.01746
226 1 14.2384 5.48125 0.671909 -3.46771
227 1 -15.7283 7.02618 0.463559 -2.73958
228 1 -14.083 7.13136 44.6208 -3.34351
229 1 -12.3495 8.79178 -1.14935 -3.4376
230 1 -12.5313 7.19791 0.806894 -3.49717
231 1 -14.2534 8.93699 0.694961 -3.08116
232 1 -10.5485 7.18434 -1.11661 -3.48841
233 1 -8.89878 9.03596 -1.0351 -3.48291
234 1 -8.81365 7.29134 0.895141 -3.5025
235 1 -10.6766 9.01523 0.782106 -3.4737
236 1 -7.15106 7.02643 -1.23004 -3.51437
237 1 -5.37121 8.95052 -1.13789 -3.51463
238 1 -5.3243 7.10106 0.580297 -3.53274
239 1 -7.01634 8.98901 0.72544 -3.49566
240 1 -3.63543 6.86739 44.5934 -3.48624
241 1 -1.76896 8.88094 -1.27454 -3.5019
242 1 -1.79571 6.98249 0.496738 -3.48695
243 1 -3.5238 8.78812 0.626659 -3.48541
244 1 -0.0181925 7.08705 -1.23905 -3.49945
245 1 1.74342 8.87447 -1.17788 -3.48309
246 1 1.87342 6.97679 0.862972 -3.46296
247 1 0.0523342 8.77083 0.658065 -3.52969
248 1 3.54718 7.04899 44.6465 -3.42603
249 1 5.29513 9.00358 44.5011 -3.48956
250 1 5.22364 7.07049 0.368808 -3.42419
251 1 3.5447 8.96361 0.667344 -3.5164
252 1 6.98247 7.1502 44.6422 -3.50693
253 1 8.81055 8.77945 -1.06988 -3.46267
254 1 8.84829 7.00929 0.62418 -3.44896
255 1 7.10481 8.84344 0.739855 -3.5
256 1 10.6136 7.15568 -1.13699 -3.50556
257 1 12.4121 8.88845 -1.17244 -3.46494
258 1 12.3903 7.20308 0.750383 -3.51082
259 1 10.6629 9.07807 0.720763 -3.54255
260 1 14.1583 7.18436 -1.32041 -3.37159
261 1 15.9607 7.1446 0.568508 -2.70948
262 1 14.0934 9.02667 0.580521 -3.12226
263 1 -14.1191 10.4211 -1.39512 -2.72788
264 1 -12.4846 12.4328 -1.20296 -2.79182
265 1 -12.5308 10.5962 0.712293 -3.32305
266 1 -10.7208 10.6833 -1.11544 -3.5232
267 1 -8.83251 12.4228 -1.11437 -3.44812
268 1 -8.95223 10.6404 0.901178 -3.49721
269 1 -10.7994 12.3351 0.893203 -3.31493
270 1 -7.13927 10.6389 -1.21754 -3.43714
271 1 -5.38152 12.3501 -1.07087 -3.53195
272 1 -5.14732 10.5895 0.817613 -3.49609
273 1 -7.07936 12.3458 0.844113 -3.47415
274 1 -3.56842 10.7365 -1.20155 -3.51515
275 1 -1.65994 12.4871 -1.1763 -3.51504
276 1 -1.778 10.639 0.649933 -3.53796
277 1 -3.45135 12.4885 0.751874 -3.50758
278 1 0.0494369 10.5229 -1.18461 -3.48156
279 1 1.73022 12.4624 44.6472 -3.47101
280 1 1.78006 10.6262 0.917312 -3.43308
281 1 0.0441121 12.4482 0.703486 -3.48754
282 1 3.44949 10.7432 -1.28245 -3.50099
283 1 5.38509 12.5158 -1.12573 -3.5028
284 1 5.36653 10.6795 0.556909 -3.48113
285 1 3.58957 12.32 0.590226 -3.48442
286 1 7.08896 10.6166 -1.39623 -3.47775
287 1 8.80045 12.464 -1.17166 -3.46494
288 1 8.86128 10.7827 0.639362 -3.49433
289 1 7.0316 12.6471 0.682676 -3.44857
290 1 10.5908 10.8242 -1.17521 -3.47635
291 1 12.4475 12.4275 44.6476 -2.86015
292 1 12.5517 10.8841 0.684505 -3.28936
293 1 10.7366 12.4828 0.658714 -3.28033
294 1 14.2412 10.665 44.4763 -2.68087
295 1 -10.6564 13.9761 -1.07384 -2.71986
296 1 -8.80665 13.9809 0.83539 -3.14733
297 1 -7.16971 14.2664 -1.08711 -3.34189
298 1 -5.23776 15.8886 -0.919848 -2.98629
299 1 -5.52547 14.1766 0.796359 -3.40288
300 1 -7.21388 15.8644 0.895026 -2.68078
301 1 -3.53116 14.1256 -1.01366 -3.45905
302 1 -1.75463 15.8791 -1.31516 -3.16402
303 1 -1.59855 14.1898 0.753386 -3.45165
304 1 -3.48318 15.7688 0.823757 -3.02723
305 1 0.0766447 14.1342 -1.15993 -3.45328
306 1 1.82127 15.9776 -1.21245 -3.12826
307 1 1.88254 14.1159 0.758713 -3.46232
308 1 0.14462 15.9508 0.620629 -3.26701
309 1 3.46597 14.252 -1.2764 -3.43036
310 1 5.07129 15.9554 -1.22279 -2.97233
311 1 5.13455 14.2824 0.967009 -3.39916
312 1 3.32982 15.9705 0.816258 -3.0349
313 1 6.90903 14.3872 44.7596 -3.30137
314 1 8.75524 14.2624 0.612102 -3.11833
315 1 6.89063 15.8889 0.726633 -2.73104
316 1 10.6554 14.299 -1.02404 -2.69785
317 1 0.0723172 17.5069 44.3506 -2.3837
318 1 -5.2482 -16.0854 2.37802 -2.95689
319 1 -6.95497 -15.8684 4.45859 -2.68788
320 1 -1.77498 -16.0769 2.49289 -3.09662
321 1 -3.37194 -16.0633 4.4706 -2.99403
322 1 0.0664856 -17.5458 2.63284 -2.32768
323 1 1.92079 -15.905 2.37979 -3.0709
324 1 -0.0313108 -16.06 4.55369 -3.0945
325 1 5.19459 -15.8804 2.54274 -2.93358
326 1 3.63482 -15.8251 4.49243 -3.02198
327 1 6.91622 -15.7125 4.42783 -2.73811
328 1 -12.2572 -12.3523 2.51937 -2.83043
329 1 -10.4176 -14.085 2.39533 -2.6775
330 1 -8.69748 -12.4477 2.57298 -3.40447
331 1 -8.83872 -14.3723 4.65471 -3.01987
332 1 -10.5007 -12.4709 4.62685 -3.31453
333 1 -7.19778 -14.4244 2.53226 -3.34198
334 1 -5.25443 -12.4257 2.47131 -3.50978
335 1 -5.25107 -14.1704 4.26178 -3.38342
336 1 -7.13946 -12.5802 4.45421 -3.49894
337 1 -3.49179 -14.365 2.62736 -3.40103
338 1 -1.9186 -12.5249 2.63776 -3.43497
339 1 -1.66091 -14.3446 4.48109 -3.44065
340 1 -3.43893 -12.4833 4.37222 -3.44782
341 1 0.00507454 -14.2027 2.33686 -3.466
342 1 1.85342 -12.5161 2.54364 -3.50906
343 1 1.70029 -14.2132 4.61168 -3.42116
344 1 0.0652728 -12.455 4.44752 -3.48194
345 1 3.53177 -14.2771 2.44054 -3.31479
346 1 5.28588 -12.3553 2.44419 -3.52475
347 1 5.26921 -14.0762 4.23316 -3.36009
348 1 3.57448 -12.2849 4.53117 -3.51299
349 1 7.19937 -14.1707 2.31226 -3.37573
350 1 8.97131 -12.3057 2.29598 -3.40582
351 1 8.89633 -14.1732 4.1779 -3.10951
352 1 7.1016 -12.4304 4.20998 -3.5221
353 1 10.7452 -13.9144 2.45442 -2.6774
354 1 12.4765 -12.2322 2.19925 -2.86873
355 1 10.6846 -12.4984 4.28718 -3.27777
356 1 -13.9432 -10.6798 2.72583 -2.73187
357 1 -12.2641 -9.00481 2.6916 -3.45304
358 1 -12.3753 -10.8303 4.54793 -3.31861
359 1 -14.174 -8.90569 4.49113 -3.09983
360 1 -10.6285 -10.704 2.64846 -3.45082
361 1 -8.81772 -8.87056 2.46507 -3.4834
362 1 -8.72358 -10.6612 4.4588 -3.50488
363 1 -10.4732 -8.85902 4.43021 -3.51593
364 1 -6.9488 -10.7312 2.69641 -3.47706
365 1 -5.20986 -8.84863 2.52602 -3.50305
366 1 -5.12409 -10.5762 4.39308 -3.5005
367 1 -6.9348 -8.82705 4.46166 -3.50689
368 1 -3.45408 -10.6112 2.5597 -3.50597
369 1 -1.68399 -8.81137 2.48284 -3.48686
370 1 -1.73573 -10.635 4.46108 -3.50386
371 1 -3.38837 -8.76789 4.6492 -3.48816
372 1 0.0525476 -10.6821 2.52866 -3.54311
373 1 1.86106 -8.94247 2.36716 -3.4257
374 1 1.72811 -10.6635 4.48365 -3.47618
375 1 -0.0392047 -8.9214 4.4675 -3.48928
376 1 3.62217 -10.6191 2.42485 -3.41633
377 1 5.29453 -9.07074 2.4991 -3.43786
378 1 5.34783 -10.5936 4.39134 -3.45013
379 1 3.58358 -9.01849 4.46595 -3.47738
380 1 7.1361 -10.6717 2.44624 -3.49978
381 1 8.92464 -8.71387 2.5029 -3.45138
382 1 8.88961 -10.6672 4.28863 -3.52749
383 1 7.14678 -8.97028 4.3244 -3.49413
384 1 10.6616 -10.5763 2.45604 -3.49796
385 1 12.5399 -8.98452 2.4667 -3.41547
386 1 12.5315 -10.7615 4.29659 -3.32456
387 1 10.6574 -8.84563 4.39435 -3.52502
388 1 14.2032 -10.5846 2.33767 -2.696
389 1 14.1979 -8.97277 4.51457 -3.09132
390 1 -16.0541 -5.3164 2.81587 -2.94186
391 1 -15.8477 -7.18794 4.37848 -2.72019
392 1 -14.1339 -7.17336 2.70616 -3.36
393 1 -12.3305 -5.43272 2.63727 -3.51037
394 1 -12.2832 -7.12677 4.47765 -3.47764
395 1 -14.1689 -5.35652 4.495 -3.4518
396 1 -10.5674 -7.10435 2.54101 -3.49672
397 1 -9.06986 -5.22196 2.63784 -3.49648
398 1 -8.72481 -7.05992 4.57616 -3.49385
399 1 -10.5881 -5.4531 4.59415 -3.4618
400 1 -7.19098 -7.08441 2.60363 -3.49641
401 1 -5.37446 -5.41997 2.57938 -3.46387
402 1 -5.34694 -7.02774 4.5327 -3.46538
403 1 -7.02372 -5.37657 4.61395 -3.44326
404 1 -3.49481 -7.07421 2.53099 -3.50563
405 1 -1.65982 -5.4354 2.56729 -3.52434
406 1 -1.65601 -7.02835 4.51771 -3.50252
407 1 -3.5368 -5.20938 4.42311 -3.52939
408 1 0.087819 -7.26458 2.50561 -3.46198
409 1 1.80916 -5.33398 2.69709 -3.4843
410 1 1.84045 -7.24523 4.47766 -3.53536
411 1 0.13166 -5.35414 4.5719 -3.48711
412 1 3.5358 -7.32924 2.35809 -3.42592
413 1 5.28211 -5.48988 2.74558 -3.51127
414 1 5.27644 -7.24223 4.52994 -3.50616
415 1 3.5333 -5.40545 4.5725 -3.49035
416 1 7.17184 -7.23835 2.61543 -3.426
417 1 8.92981 -5.35677 2.58134 -3.52713
418 1 8.93981 -7.05798 4.42334 -3.48901
419 1 7.05776 -5.44623 4.51821 -3.50907
420 1 10.9151 -7.15733 2.47156 -3.50409
421 1 12.5335 -5.21163 2.51327 -3.4822
422 1 12.5758 -7.16918 4.46276 -3.48433
423 1 10.8178 -5.4582 4.47587 -3.52028
424 1 14.4308 -7.38185 2.6518 -3.28683
425 1 16.061 -5.39113 2.72174 -2.92771
426 1 15.9703 -6.93495 4.51968 -2.70622
427 1 14.2316 -5.32242 4.38912 -3.40723
428 1 -15.9695 -1.92137 2.61519 -3.09985
429 1 -16.0835 -3.48098 4.516 -2.99835
430 1 -14.211 -3.58045 2.57616 -3.4723
431 1 -12.5901 -1.64599 2.60246 -3.53326
432 1 -12.4684 -3.45811 4.53465 -3.49503
433 1 -14.2484 -1.93743 4.63199 -3.3862
434 1 -10.6805 -3.42275 2.64593 -3.45666
435 1 -8.79859 -1.92626 2.63917 -3.48052
436 1 -8.97442 -3.53731 4.54606 -3.51744
437 1 -10.6748 -1.68117 4.41231 -3.47007
438 1 -7.0371 -3.54116 2.76758 -3.49179
439 1 -5.19856 -1.78255 2.53946 -3.45708
440 1 -5.3031 -3.36851 4.43065 -3.49295
441 1 -7.14045 -1.76184 4.55824 -3.443
442 1 -3.51777 -3.60784 2.5311 -3.50805
443 1 -1.82084 -1.82665 2.51645 -3.49837
444 1 -1.59768 -3.57893 4.4912 -3.51215
445 1 -3.39496 -1.85699 4.48368 -3.47638
446 1 -0.00293907 -3.49556 2.66385 -3.50007
447 1 1.73048 -1.66338 2.58184 -3.49584
448 1 1.85108 -3.63943 4.545 -3.48183
449 1 0.210025 -1.78782 4.57178 -3.46804
450 1 3.54292 -3.61182 2.57953 -3.48691
451 1 5.38729 -1.76867 2.53584 -3.51435
452 1 5.40113 -3.5267 4.39071 -3.45874
453 1 3.66394 -1.84384 4.51487 -3.50759
454 1 7.06185 -3.64912 2.52878 -3.51378
455 1 8.92849 -1.88198 2.60121 -3.52034
456 1 8.99338 -3.5841 4.48113 -3.51261
457 1 7.14844 -1.8807 4.43255 -3.49397
458 1 10.7081 -3.55145 2.55009 -3.49397
459 1 12.4707 -1.7704 2.52933 -3.48162
460 1 12.5538 -3.49348 4.41636 -3.4984
461 1 10.8091 -1.76151 4.59252 -3.48507
462 1 14.3428 -3.48026 2.71195 -3.38144
463 1 15.9211 -1.81465 2.63568 -3.09976
464 1 16.0825 -3.57638 4.50179 -3.02933
465 1 14.1594 -1.6269 4.44033 -3.44713
466 1 -17.4978 -0.114125 2.60837 -2.55589
467 1 -16.2298 1.92771 2.38752 -3.12998
468 1 -15.9898 -0.235976 4.53778 -3.22614
469 1 -14.4823 0.158933 2.39581 -3.48182
470 1 -12.4667 1.70454 2.66088 -3.47596
471 1 -12.6194 -0.097052 4.5134 -3.44078
472 1 -14.2156 1.56563 4.39263 -3.43006
473 1 -10.624 0.00255551 2.65015 -3.49552
474 1 -8.80086 1.72728 2.57071 -3.51205
475 1 -8.86172 -0.0648794 4.50535 -3.491
476 1 -10.6864 1.73284 4.61333 -3.53753
477 1 -6.94234 -0.0852612 2.45464 -3.50619
478 1 -5.37194 1.77965 2.50971 -3.49638
479 1 -5.42463 -0.10885 4.52757 -3.50671
480 1 -7.12807 1.76269 4.47767 -3.51981
481 1 -3.60536 -0.0857585 2.73474 -3.48321
482 1 -1.84443 1.86557 2.6386 -3.49213
483 1 -1.68947 -0.105149 4.516 -3.50606
484 1 -3.49493 1.87889 4.57692 -3.51239
485 1 0.0238 0.0871585 2.61254 -3.53633
486 1 1.84241 1.775 2.50302 -3.47709
487 1 1.82185 -0.0145189 4.54368 -3.50506
488 1 0.0314026 1.73408 4.63543 -3.48386
489 1 3.52506 0.0287927 2.69594 -3.46906
490 1 5.31611 1.71052 2.47312 -3.52729
491 1 5.35924 0.00518911 4.50688 -3.51557
492 1 3.6096 1.8574 4.42578 -3.50278
493 1 7.13446 -0.082223 2.57775 -3.49978
494 1 8.80839 1.72258 2.4431 -3.48519
495 1 8.96079 -0.0769948 4.38471 -3.5309
496 1 7.16432 1.6779 4.33732 -3.50832
497 1 10.8225 -0.114358 2.48777 -3.47976
498 1 12.4697 1.66383 2.60747 -3.48767
499 1 12.4965 0.0988907 4.49874 -3.50447
500 1 10.5653 1.87145 4.3922 -3.49739
501 1 14.1907 -0.0378472 2.56377 -3.48965
502 1 15.9091 1.99887 2.41038 -3.09188
503 1 15.9197 0.0943089 4.36812 -3.21305
504 1 14.2412 1.92212 4.36327 -3.4819
505 1 17.3955 0.103253 2.49099 -2.40761
506 1 -15.9306 5.33546 2.624 -2.9581
507 1 -15.9114 3.40237 4.46261 -3.1237
508 1 -14.1777 3.53597 2.45374 -3.50538
509 1 -12.5488 5.45787 2.6931 -3.44672
510 1 -12.5693 3.47765 4.47211 -3.51239
511 1 -14.305 5.17215 4.4505 -3.38046
512 1 -10.8144 3.43041 2.69095 -3.52136
513 1 -8.96567 5.36973 2.5895 -3.49367
514 1 -8.97738 3.59947 4.43221 -3.49841
515 1 -10.7648 5.26156 4.58539 -3.51841
516 1 -7.14376 3.60282 2.65343 -3.51331
517 1 -5.30643 5.31895 2.57048 -3.51159
518 1 -5.29501 3.62667 4.50846 -3.50954
519 1 -7.09443 5.47398 4.31097 -3.50563
520 1 -3.64333 3.47901 2.56366 -3.48046
521 1 -1.83706 5.34761 2.56038 -3.52575
522 1 -1.68635 3.59571 4.58472 -3.50595
523 1 -3.3788 5.32795 4.53221 -3.49833
524 1 -0.0285969 3.48458 2.60651 -3.52437
525 1 1.79152 5.2873 2.61911 -3.48834
526 1 1.72112 3.44904 4.47469 -3.51184
527 1 0.170151 5.40884 4.39086 -3.40919
528 1 3.65197 3.54309 2.55032 -3.50807
529 1 5.38189 5.30817 2.46587 -3.49398
530 1 5.41565 3.47274 4.48257 -3.49308
531 1 3.68155 5.23512 4.36319 -3.52155
532 1 7.1037 3.46537 2.35343 -3.50532
533 1 8.99417 5.28301 2.43435 -3.46963
534 1 8.81714 3.52901 4.31161 -3.47262
535 1 7.10473 5.29521 4.45201 -3.52139
536 1 10.637 3.45979 2.52695 -3.50957
537 1 12.3091 5.49669 2.57217 -3.48683
538 1 12.4571 3.5097 4.4686 -3.49881
539 1 10.5634 5.15888 4.36671 -3.47518
540 1 14.1233 3.67601 2.51433 -3.45977
541 1 15.9268 5.52847 2.54341 -3.00533
542 1 16.1134 3.61406 4.14866 -2.97834
543 1 14.1836 5.34408 4.38142 -3.47871
544 1 -15.9394 7.00791 4.60427 -2.72458
545 1 -14.3557 7.1479 2.53583 -3.34531
546 1 -12.3474 8.88788 2.57411 -3.29658
547 1 -12.6907 7.02498 4.38825 -3.4527
548 1 -14.3245 8.93797 4.62346 -3.06594
549 1 -10.7351 7.03486 2.79347 -3.44741
550 1 -8.98987 8.94265 2.75569 -3.45911
551 1 -8.99867 7.11932 4.50555 -3.51174
552 1 -10.9783 8.90377 4.41265 -3.44334
553 1 -7.04359 7.18774 2.56513 -3.50763
554 1 -5.19162 8.84693 2.69215 -3.48712
555 1 -5.18603 7.1235 4.43652 -3.51737
556 1 -7.14867 8.80457 4.49621 -3.49184
557 1 -3.52658 7.02187 2.50564 -3.46562
558 1 -1.74059 8.74015 2.47944 -3.49473
559 1 -1.56281 7.11382 4.48144 -3.50172
560 1 -3.39217 8.89931 4.46186 -3.51353
561 1 0.0326732 7.04654 2.60295 -3.47523
562 1 1.85194 8.86237 2.48238 -3.44554
563 1 1.86635 6.99989 4.50428 -3.47441
564 1 0.224472 8.84132 4.57801 -3.49312
565 1 3.73367 7.10962 2.59826 -3.50737
566 1 5.41426 8.94998 2.68177 -3.44459
567 1 5.33795 7.09092 4.48205 -3.46745
568 1 3.63567 8.77338 4.56141 -3.49608
569 1 7.2529 7.02064 2.40621 -3.4777
570 1 8.95092 9.07993 2.53621 -3.51336
571 1 8.97318 7.08041 4.37747 -3.48025
572 1 7.12171 8.88095 4.51292 -3.51329
573 1 10.5279 7.07785 2.56281 -3.45194
574 1 12.3466 9.0123 2.62616 -3.4158
575 1 12.2754 7.02735 4.39738 -3.51465
576 1 10.4798 8.97009 4.42554 -3.47109
577 1 14.2241 7.29843 2.42693 -3.3548
578 1 15.936 6.98196 4.52242 -2.69854
579 1 14.203 8.71767 4.44543 -3.119
580 1 -14.1153 10.3457 2.75763 -2.73928
581 1 -12.5549 12.2368 2.78675 -2.83039
582 1 -12.5199 10.9604 4.69076 -3.2053
583 1 -10.7326 10.5829 2.75506 -3.41725
584 1 -8.6944 12.2087 2.74609 -3.44165
585 1 -8.92976 10.4842 4.49867 -3.46375
586 1 -10.5899 12.4718 4.53295 -3.34831
587 1 -7.02272 10.5006 2.68838 -3.48281
588 1 -5.19873 12.4809 2.51917 -3.48973
589 1 -5.2365 10.5309 4.67616 -3.50377
590 1 -7.06812 12.2748 4.61591 -3.50396
591 1 -3.32006 10.8085 2.76278 -3.47616
592 1 -1.60652 12.4845 2.68679 -3.48419
593 1 -1.58591 10.7254 4.63754 -3.45208
594 1 -3.34573 12.3399 4.57774 -3.45698
595 1 -0.0271045 10.5776 2.72224 -3.51804
596 1 1.81254 12.4001 2.59225 -3.52264
597 1 1.80064 10.6419 4.61465 -3.5058
598 1 0.0191082 12.5507 4.59369 -3.50509
599 1 3.51961 10.5585 2.72257 -3.47899
600 1 5.2364 12.5272 2.60882 -3.49348
601 1 5.42815 10.6124 4.69627 -3.49061
602 1 3.54872 12.3814 4.4328 -3.50717
603 1 6.97994 10.7095 2.56722 -3.46963
604 1 8.6957 12.4442 2.38945 -3.42048
605 1 8.78875 10.7174 4.45394 -3.51303
606 1 7.13624 12.5546 4.42565 -3.49374
607 1 10.6044 10.9524 2.53236 -3.42626
608 1 12.2906 12.4595 2.84042 -2.81057
609 1 12.3677 10.4905 4.617 -3.32205
610 1 10.5894 12.4846 4.61223 -3.28322
611 1 14.024 10.4958 2.783 -2.70799
612 1 -10.5599 14.0179 2.54763 -2.72313
613 1 -8.83238 14.3011 4.61152 -3.08242
614 1 -7.16977 14.1769 2.88567 -3.34583
615 1 -5.35351 15.9213 2.75876 -2.99102
616 1 -5.21676 14.0571 4.5876 -3.47231
617 1 -6.90121 15.9087 4.64014 -2.7275
618 1 -3.38724 14.1564 2.66998 -3.45582
619 1 -1.61358 16.0844 2.60845 -3.10091
620 1 -1.77912 14.2892 4.50015 -3.46569
621 1 -3.48126 15.9765 4.57397 -3.02605
622 1 0.187594 14.3975 2.66456 -3.52393
623 1 1.94915 16.2341 2.78149 -3.03635
624 1 1.77201 14.273 4.60452 -3.493
625 1 0.027115 16.0437 4.7328 -3.2525
626 1 3.56882 14.3496 2.71722 -3.37586
627 1 5.20948 16.244 2.55771 -2.98993
628 1 5.23279 14.2673 4.35185 -3.43038
629 1 3.52286 16.1104 4.62122 -3.04635
630 1 7.10091 14.4361 2.57264 -3.34636
631 1 8.8534 14.2371 4.33909 -3.09547
632 1 6.87905 16.0254 4.51026 -2.73488
633 1 10.5171 14.107 2.34678 -2.75744
634 1 0.183777 17.7297 2.57513 -2.23274
635 1 -5.25424 -15.5204 6.30088 -3.02875
636 1 -6.82231 -15.8685 8.42182 -2.74097
637 1 -1.88736 -16.1343 6.61129 -2.99043
638 1 -3.81872 -15.8989 8.3744 -3.0109
639 1 -0.0527773 -17.396 6.40532 -2.37567
640 1 1.86486 -15.9253 6.6296 -3.11988
641 1 0.0734081 -16.0459 8.35362 -3.1266
642 1 5.39006 -15.8014 6.34255 -2.96839
643 1 3.78368 -16.0807 8.18392 -2.96947
644 1 6.81536 -15.7778 8.40312 -2.79042
645 1 -12.4358 -12.2718 6.73002 -2.82027
646 1 -10.4125 -13.8428 6.6576 -2.76402
647 1 -8.79762 -12.1897 6.53458 -3.37227
648 1 -8.82358 -14.3421 8.46724 -3.04808
649 1 -10.6278 -12.2735 8.51116 -3.33109
650 1 -7.10776 -14.0693 6.53964 -3.32491
651 1 -5.21384 -12.507 6.27024 -3.52469
652 1 -5.21305 -13.9961 8.27731 -3.43936
653 1 -7.04945 -12.3386 8.31665 -3.49082
654 1 -3.28054 -14.2219 6.51547 -3.39685
655 1 -1.64699 -12.3633 6.46832 -3.48567
656 1 -1.89246 -14.2792 8.49685 -3.44689
657 1 -3.26977 -12.2639 8.33228 -3.45101
658 1 -0.131411 -14.4415 6.4275 -3.48978
659 1 1.73158 -12.6607 6.40928 -3.48931
660 1 1.93255 -14.2294 8.52473 -3.44714
661 1 0.0205016 -12.5904 8.47142 -3.50916
662 1 3.72041 -14.1312 6.34367 -3.3931
663 1 5.42099 -12.4949 6.36026 -3.49911
664 1 5.17496 -14.0179 8.4296 -3.45493
665 1 3.33951 -12.1667 8.31682 -3.45882
666 1 7.30741 -14.2144 6.27987 -3.28325
667 1 8.93359 -12.5104 6.1831 -3.35223
668 1 8.96235 -14.3406 8.25928 -3.05365
669 1 7.1174 -12.503 8.2856 -3.49524
670 1 10.5456 -14.1083 6.23865 -2.70449
671 1 12.3364 -12.3319 6.45476 -2.87897
672 1 10.5554 -12.4924 8.12052 -3.28294
673 1 -14.3373 -10.3808 6.36453 -2.69108
674 1 -12.429 -8.99959 6.43724 -3.43017
675 1 -12.5327 -10.5628 8.27476 -3.28725
676 1 -14.4 -8.84751 8.44004 -3.0642
677 1 -10.6628 -10.6758 6.43621 -3.46164
678 1 -8.70788 -8.90483 6.38427 -3.53897
679 1 -8.86984 -10.538 8.32359 -3.45642
680 1 -10.5749 -8.93367 8.2367 -3.49162
681 1 -6.88677 -10.6427 6.27726 -3.52451
682 1 -5.1166 -8.81225 6.47677 -3.51884
683 1 -5.22731 -10.7374 8.21476 -3.51085
684 1 -6.9263 -8.90816 8.21842 -3.52253
685 1 -3.50998 -10.7354 6.27185 -3.49481
686 1 -1.71892 -8.94867 6.46212 -3.51378
687 1 -1.53665 -10.639 8.29973 -3.47363
688 1 -3.33554 -8.9846 8.33031 -3.52141
689 1 0.0441686 -10.6646 6.27176 -3.42076
690 1 1.70245 -8.96855 6.46976 -3.49467
691 1 1.53656 -10.5665 8.41947 -3.47498
692 1 -0.0639986 -8.65586 8.28664 -3.44333
693 1 3.55822 -10.6963 6.50217 -3.46467
694 1 5.36675 -9.04582 6.39075 -3.48331
695 1 5.42212 -10.8349 8.24962 -3.47798
696 1 3.42555 -9.06644 8.43901 -3.48179
697 1 7.30083 -10.6084 6.27396 -3.50768
698 1 8.95311 -8.81737 6.18935 -3.47372
699 1 8.95728 -10.7281 8.18576 -3.48748
700 1 7.18817 -8.95844 8.18151 -3.52578
701 1 10.5385 -10.6228 6.26653 -3.44324
702 1 12.2755 -9.08121 6.22887 -3.37501
703 1 12.3134 -10.7591 8.40188 -3.33312
704 1 10.6433 -8.91635 8.17339 -3.50691
705 1 13.9866 -10.5832 6.40743 -2.71364
706 1 14.1044 -8.8693 8.29675 -3.02413
707 1 -15.7238 -5.36273 6.25579 -2.98893
708 1 -15.8664 -6.88 8.09739 -2.75719
709 1 -14.2435 -7.17512 6.2643 -3.3254
710 1 -12.4993 -5.43535 6.36786 -3.51992
711 1 -12.5141 -7.17369 8.32944 -3.51019
712 1 -14.0395 -5.34762 8.37714 -3.42985
713 1 -10.6455 -7.1696 6.29804 -3.49796
714 1 -8.80643 -5.21602 6.39729 -3.47628
715 1 -8.83451 -7.08322 8.33776 -3.52141
716 1 -10.6994 -5.46291 8.19168 -3.49321
717 1 -6.96629 -7.11767 6.42156 -3.49413
718 1 -5.35789 -5.23803 6.28128 -3.48783
719 1 -5.22373 -7.03514 8.26729 -3.50337
720 1 -7.08831 -5.34409 8.19611 -3.48382
721 1 -3.46953 -6.91959 6.30938 -3.50101
722 1 -1.57971 -5.29547 6.4878 -3.45943
723 1 -1.79419 -7.04282 8.38575 -3.48122
724 1 -3.53839 -5.30038 8.11185 -3.45552
725 1 0.0987056 -7.02236 6.51124 -3.47583
726 1 1.91635 -5.33961 6.47165 -3.48756
727 1 1.89082 -7.1349 8.22423 -3.48378
728 1 0.0866535 -5.31675 8.42427 -3.54615
729 1 3.65341 -7.24054 6.47791 -3.50756
730 1 5.28501 -5.29101 6.42376 -3.5138
731 1 5.32109 -7.10326 8.37194 -3.50578
732 1 3.60648 -5.32134 8.50049 -3.49353
733 1 7.16252 -7.18238 6.34377 -3.51827
734 1 8.92868 -5.39562 6.41111 -3.51634
735 1 8.96492 -7.00995 8.23779 -3.50341
736 1 7.05946 -5.37405 8.32313 -3.50501
737 1 10.7633 -7.09605 6.46831 -3.46304
738 1 12.6292 -5.34602 6.24059 -3.48438
739 1 12.3378 -7.1007 8.15106 -3.46828
740 1 10.7916 -5.1765 8.2227 -3.49957
741 1 14.2122 -7.2529 6.33249 -3.35836
742 1 15.9767 -5.37896 6.48033 -3.00487