ITEM: TIMESTEP
18000
ITEM: NUMBER OF ATOMS
3804
ITEM: BOX BOUNDS ss ss pp
-1.8057774823351178e+01 1.8206324497775853e+01
-1.7947088770609462e+01 1.7913280853211930e+01
-3.9041999999999999e-01 4.3770420000000001e+01
ITEM: ATOMS id type x y z c_peratom
1 1 -5.35316 -15.9424 43.7633 -3.00183
2 1 -7.03235 -15.8552 1.40248 -2.76487
3 1 -1.89216 -16.0447 -0.374738 -3.13429
4 1 -3.65073 -16.1805 1.36963 -3.0104
5 1 -0.188495 -17.6723 43.3995 -2.38981
6 1 1.7069 -16.2691 43.8279 -3.12348
7 1 -0.0831071 -16.1455 1.43288 -3.23751
8 1 5.36627 -16.329 43.5556 -2.97134
9 1 3.6278 -16.0731 1.22722 -3.0591
10 1 7.17992 -16.2074 0.979494 -2.68814
11 1 -12.5936 -12.4424 -0.383342 -2.88759
12 1 -10.7769 -14.1806 -0.307985 -2.73426
13 1 -9.04304 -12.5939 -0.465545 -3.44946
14 1 -9.05632 -14.3844 1.39625 -3.11068
15 1 -10.8144 -12.3869 1.43492 -3.34875
16 1 -7.26686 -14.3693 -0.428047 -3.32958
17 1 -5.40398 -12.3662 -0.453507 -3.51588
18 1 -5.35476 -14.1357 1.48073 -3.43239
19 1 -7.28031 -12.5646 1.41971 -3.51333
20 1 -3.70464 -14.228 43.8227 -3.46243
21 1 -1.66926 -12.4805 43.7687 -3.5208
22 1 -1.88993 -14.3266 1.43589 -3.50331
23 1 -3.53869 -12.5053 1.49714 -3.46959
24 1 -0.0421536 -14.4646 -0.398969 -3.49886
25 1 1.64271 -12.5169 43.8074 -3.52442
26 1 1.76224 -14.3803 1.33089 -3.47491
27 1 -0.0149619 -12.5103 1.5298 -3.52121
28 1 3.4993 -14.3552 -0.574251 -3.49873
29 1 5.37163 -12.6227 -0.527644 -3.48941
30 1 5.34111 -14.2546 1.1931 -3.43487
31 1 3.45725 -12.5702 1.33994 -3.53602
32 1 7.02163 -14.3975 -0.605178 -3.37064
33 1 8.795 -12.5727 -0.564359 -3.44126
34 1 8.91244 -14.3984 1.44503 -3.11282
35 1 7.24541 -12.4988 1.33319 -3.52286
36 1 10.4134 -14.2859 43.6758 -2.74344
37 1 12.2747 -12.514 43.6995 -2.86653
38 1 10.5889 -12.5994 1.27773 -3.32143
39 1 -14.4338 -10.59 -0.567122 -2.71699
40 1 -12.638 -8.82715 43.7387 -3.49432
41 1 -12.7366 -10.748 1.33632 -3.33183
42 1 -14.4718 -8.7704 1.33373 -3.14076
43 1 -10.7672 -10.6883 -0.291259 -3.49271
44 1 -9.04293 -8.86508 43.6961 -3.4821
45 1 -8.92583 -10.6603 1.45866 -3.48377
46 1 -10.7972 -8.97943 1.36111 -3.49838
47 1 -7.28218 -10.8378 43.71 -3.5146
48 1 -5.42207 -9.04963 -0.592191 -3.49429
49 1 -5.3769 -10.8551 1.47452 -3.51324
50 1 -6.97756 -8.97448 1.42664 -3.50661
51 1 -3.45276 -10.6854 -0.536314 -3.47385
52 1 -1.7409 -8.84709 -0.541699 -3.53494
53 1 -1.88663 -10.7689 1.36245 -3.48791
54 1 -3.5796 -8.93745 1.27314 -3.50513
55 1 -0.00101082 -10.6721 43.8025 -3.51007
56 1 1.71234 -8.84093 -0.446466 -3.50065
57 1 1.73734 -10.7118 1.4643 -3.52447
58 1 0.0612437 -8.89543 1.39139 -3.49221
59 1 3.51248 -10.7715 -0.501518 -3.52044
60 1 5.23826 -8.98169 -0.653246 -3.44643
61 1 5.4055 -10.677 1.16349 -3.49694
62 1 3.60327 -8.99476 1.30076 -3.51073
63 1 7.29059 -10.7116 43.6793 -3.49124
64 1 9.01084 -8.99478 43.7891 -3.46526
65 1 9.05389 -10.6325 1.34202 -3.49144
66 1 7.1589 -8.9726 1.50811 -3.48116
67 1 10.6611 -10.7945 -0.517045 -3.49078
68 1 12.5822 -9.03741 43.6492 -3.4448
69 1 12.628 -10.8755 1.45362 -3.32419
70 1 10.9346 -8.9119 1.24574 -3.48922
71 1 14.0625 -10.9462 -0.559963 -2.72647
72 1 14.3585 -9.01498 1.23754 -3.13442
73 1 -16.2501 -5.20235 43.5701 -2.93406
74 1 -16.2058 -6.81711 1.34201 -2.74794
75 1 -14.4347 -6.86055 43.6948 -3.36293
76 1 -12.7051 -5.27121 -0.545223 -3.47587
77 1 -12.503 -7.09114 1.37564 -3.43056
78 1 -14.2909 -5.28344 1.50099 -3.44417
79 1 -10.8162 -7.21335 43.7851 -3.48707
80 1 -8.94352 -5.35737 43.7803 -3.50949
81 1 -8.97066 -7.17534 1.55067 -3.53637
82 1 -10.9426 -5.4142 1.39302 -3.46471
83 1 -7.2135 -7.20001 -0.418029 -3.51689
84 1 -5.47651 -5.38336 -0.506372 -3.50572
85 1 -5.47565 -7.06306 1.4418 -3.49304
86 1 -7.19415 -5.23719 1.43302 -3.47965
87 1 -3.7053 -7.24659 43.7035 -3.47522
88 1 -1.80016 -5.3726 -0.449308 -3.50538
89 1 -1.90329 -7.14114 1.35731 -3.52695
90 1 -3.57065 -5.09568 1.34272 -3.46763
91 1 0.0820285 -7.06498 -0.404313 -3.49708
92 1 1.77315 -5.24888 43.8576 -3.49491
93 1 1.81763 -7.24582 1.51372 -3.5141
94 1 -0.10551 -5.25589 1.54458 -3.49581
95 1 3.53158 -7.06554 -0.525248 -3.50157
96 1 5.38844 -5.28424 43.8678 -3.5342
97 1 5.20617 -7.15587 1.40082 -3.50872
98 1 3.53156 -5.3489 1.4126 -3.48434
99 1 7.15688 -7.20235 43.8729 -3.51934
100 1 8.89297 -5.54905 43.7557 -3.49754
101 1 9.03315 -7.23846 1.52969 -3.5294
102 1 7.23125 -5.41496 1.41491 -3.49754
103 1 10.7338 -7.21818 43.6885 -3.49319
104 1 12.6666 -5.32167 43.7554 -3.45365
105 1 12.6579 -7.19042 1.38993 -3.46863
106 1 10.8896 -5.51404 1.43219 -3.49244
107 1 14.4075 -7.16033 43.7976 -3.33415
108 1 16.3941 -5.4621 43.6661 -2.97837
109 1 16.2308 -7.04474 1.36914 -2.7295
110 1 14.4144 -5.42169 1.25319 -3.40436
111 1 -16.1278 -1.69683 -0.51793 -3.14102
112 1 -16.1574 -3.55999 1.49058 -3.04774
113 1 -14.4667 -3.60029 43.6793 -3.44538
114 1 -12.7848 -1.86686 -0.57279 -3.47775
115 1 -12.7098 -3.45783 1.34993 -3.50701
116 1 -14.4738 -1.7494 1.39197 -3.43335
117 1 -10.8015 -3.51773 43.6705 -3.53867
118 1 -8.96654 -1.67122 43.8204 -3.52488
119 1 -8.99585 -3.67848 1.41325 -3.47693
120 1 -10.8539 -1.78412 1.35469 -3.51785
121 1 -7.28356 -3.59886 -0.475498 -3.47794
122 1 -5.59859 -1.72696 43.7489 -3.4972
123 1 -5.42813 -3.45767 1.34001 -3.50946
124 1 -7.34588 -1.76022 1.46683 -3.49507
125 1 -3.63724 -3.3853 43.7747 -3.49453
126 1 -1.78037 -1.59594 43.6915 -3.50609
127 1 -1.81455 -3.4725 1.29589 -3.4775
128 1 -3.61526 -1.55292 1.49329 -3.51572
129 1 -0.0185472 -3.44304 43.7798 -3.51079
130 1 1.8211 -1.74287 43.7984 -3.47958
131 1 1.63739 -3.43488 1.44493 -3.50096
132 1 -0.0210051 -1.57676 1.48723 -3.5211
133 1 3.5157 -3.49858 43.8533 -3.52274
134 1 5.40565 -1.79061 43.6996 -3.52228
135 1 5.55499 -3.5572 1.42475 -3.47738
136 1 3.4982 -1.70739 1.44353 -3.49152
137 1 7.28059 -3.52624 43.8179 -3.49363
138 1 9.23212 -1.92981 43.8711 -3.42969
139 1 9.00295 -3.67752 1.43503 -3.50701
140 1 7.1711 -1.73581 1.6229 -3.48781
141 1 10.8451 -3.66202 43.9687 -3.46303
142 1 12.6339 -1.71332 43.8667 -3.54887
143 1 12.7233 -3.46775 1.48509 -3.53657
144 1 10.7912 -1.77021 1.62501 -3.50282
145 1 14.4694 -3.57653 -0.360537 -3.42301
146 1 16.0876 -1.67923 -0.42255 -3.13501
147 1 16.0902 -3.67033 1.35223 -3.03533
148 1 14.5569 -1.72624 1.46627 -3.43555
149 1 -17.8175 0.117899 43.672 -2.31465
150 1 -16.24 1.81989 -0.459074 -3.08836
151 1 -16.4174 0.122433 1.51872 -3.14522
152 1 -14.4048 -0.0587673 -0.599234 -3.46214
153 1 -12.7338 1.89666 -0.514476 -3.5397
154 1 -12.7844 -0.106626 1.34097 -3.49367
155 1 -14.5464 1.65103 1.32011 -3.47447
156 1 -11.0198 -0.0858626 -0.479355 -3.51752
157 1 -9.14756 1.80971 43.7676 -3.52027
158 1 -9.0154 0.0753709 1.34569 -3.48364
159 1 -10.9423 1.62851 1.36809 -3.51068
160 1 -7.13787 0.204882 43.7811 -3.48247
161 1 -5.39322 1.9399 43.8235 -3.48165
162 1 -5.51143 0.081258 1.43872 -3.52043
163 1 -7.35557 1.91174 1.50619 -3.53115
164 1 -3.70641 0.00999873 43.6088 -3.52892
165 1 -1.77523 1.95128 43.7044 -3.51791
166 1 -1.87973 0.232891 1.29689 -3.49567
167 1 -3.67952 1.8817 1.49141 -3.48908
168 1 0.0369491 0.146036 -0.455423 -3.49406
169 1 1.87471 1.77598 -0.502573 -3.48133
170 1 1.73465 0.0589383 1.38825 -3.49516
171 1 0.0800908 1.88477 1.24966 -3.47456
172 1 3.67089 -0.106383 43.6942 -3.50195
173 1 5.38326 1.79712 43.6602 -3.53473
174 1 5.2584 0.00474897 1.45318 -3.46987
175 1 3.6763 1.83369 1.32604 -3.51413
176 1 7.18877 0.00725017 43.6607 -3.51571
177 1 8.97073 1.82504 43.6712 -3.48658
178 1 9.06691 0.0344495 1.51343 -3.48964
179 1 7.21273 1.64376 1.37447 -3.50214
180 1 10.7911 0.0964838 -0.350616 -3.51249
181 1 12.6707 1.70877 43.6396 -3.46609
182 1 12.5847 -0.000165498 1.60807 -3.50422
183 1 10.8556 1.70725 1.49924 -3.48683
184 1 14.3393 0.0441559 -0.288152 -3.46316
185 1 16.1316 2.03233 43.7342 -3.08905
186 1 16.3247 -0.0175906 1.46764 -3.20063
187 1 14.3948 1.78927 1.58543 -3.47068
188 1 17.8239 0.317328 43.7405 -2.32741
189 1 -16.4267 5.36448 -0.502781 -2.97083
190 1 -16.4433 3.68047 1.5173 -2.96808
191 1 -14.6623 3.62446 -0.463368 -3.45975
192 1 -12.7809 5.38858 43.6888 -3.52315
193 1 -12.7222 3.4874 1.43243 -3.51429
194 1 -14.5053 5.29838 1.47957 -3.42996
195 1 -10.8445 3.6035 43.9798 -3.46043
196 1 -9.06212 5.46948 -0.331948 -3.53554
197 1 -9.26062 3.59237 1.55486 -3.46715
198 1 -10.9665 5.5563 1.43471 -3.48224
199 1 -7.22607 3.6525 43.9041 -3.52414
200 1 -5.43025 5.43196 43.928 -3.51412
201 1 -5.57834 3.70078 1.58432 -3.49511
202 1 -7.42514 5.39092 1.58837 -3.48867
203 1 -3.7642 3.69615 -0.349002 -3.46033
204 1 -1.98223 5.30091 -0.512159 -3.48175
205 1 -1.72463 3.5823 1.49629 -3.51542
206 1 -3.49392 5.53929 1.47762 -3.50348
207 1 0.0729084 3.58385 43.6501 -3.50228
208 1 1.81715 5.36135 43.6536 -3.50698
209 1 1.82667 3.67552 1.34564 -3.53612
210 1 -0.00158856 5.35971 1.61409 -3.44273
211 1 3.58812 3.60872 -0.481462 -3.51007
212 1 5.42531 5.33285 43.6893 -3.50173
213 1 5.41499 3.6419 1.30122 -3.48644
214 1 3.82802 5.43177 1.38782 -3.46364
215 1 7.30098 3.58397 43.6525 -3.49729
216 1 9.04522 5.3656 43.6948 -3.5198
217 1 8.97969 3.61311 1.25013 -3.49428
218 1 7.25024 5.34324 1.45177 -3.51198
219 1 10.8254 3.53326 -0.601283 -3.51307
220 1 12.4551 5.47204 -0.318966 -3.46143
221 1 12.7609 3.55119 1.56747 -3.47682
222 1 10.8779 5.34391 1.42645 -3.49047
223 1 14.2395 3.57644 -0.547033 -3.4643
224 1 16.1608 5.09681 43.7833 -3.02856
225 1 16.1766 3.43829 1.43952 -3.00786
226 1 14.4985 5.22893 1.42836 -3.46162
227 1 -16.1794 7.03665 1.36816 -2.7234
228 1 -14.591 7.12215 43.7674 -3.34392
229 1 -12.7222 9.05241 -0.522641 -3.41154
230 1 -12.7217 7.11673 1.48311 -3.46739
231 1 -14.3042 8.90087 1.30597 -3.12066
232 1 -10.9624 7.27015 -0.457362 -3.52577
233 1 -9.0061 8.92605 -0.423102 -3.51203
234 1 -9.13435 7.23701 1.46212 -3.50556
235 1 -10.8769 8.95962 1.53517 -3.51371
236 1 -7.22497 7.17857 43.7844 -3.49997
237 1 -5.52743 8.93311 -0.413725 -3.49263
238 1 -5.34607 7.25516 1.51303 -3.49596
239 1 -7.29598 8.96701 1.56525 -3.53215
240 1 -3.54958 7.31198 -0.407573 -3.54353
241 1 -1.71974 9.06246 -0.384868 -3.48207
242 1 -1.70591 7.1477 1.48664 -3.47309
243 1 -3.56937 8.95589 1.51549 -3.49942
244 1 -0.129664 7.07283 -0.330061 -3.51925
245 1 1.73771 8.80243 43.8152 -3.51278
246 1 1.80769 7.11919 1.40163 -3.53312
247 1 -0.00601097 8.9082 1.40934 -3.51482
248 1 3.62779 7.17617 43.719 -3.53453
249 1 5.36113 8.97001 43.5702 -3.48513
250 1 5.4886 7.13565 1.42156 -3.46869
251 1 3.59742 8.94805 1.46747 -3.53995
252 1 7.06664 7.12903 -0.493025 -3.4938
253 1 8.89663 8.86602 -0.319796 -3.43975
254 1 8.93251 7.12041 1.28392 -3.42485
255 1 7.23756 8.72448 1.41602 -3.43553
256 1 10.8075 7.25101 43.8929 -3.47603
257 1 12.7013 8.89433 -0.2965 -3.40316
258 1 12.7134 7.12378 1.47218 -3.49756
259 1 10.9354 8.79658 1.58486 -3.43878
260 1 14.5423 7.07431 -0.380913 -3.37809
261 1 16.3861 6.82536 1.34033 -2.66849
262 1 14.6535 8.70721 1.64588 -3.09495
263 1 -14.4018 10.777 -0.407234 -2.69514
264 1 -12.6114 12.7388 43.8251 -2.80901
265 1 -12.5898 10.778 1.47216 -3.36032
266 1 -10.9236 10.649 -0.418204 -3.4889
267 1 -8.87036 12.4909 -0.270217 -3.37493
268 1 -9.09073 10.7067 1.44363 -3.49767
269 1 -10.6542 12.5487 1.35495 -3.31655
270 1 -7.29388 10.7884 -0.296021 -3.45509
271 1 -5.48473 12.4493 -0.300518 -3.51741
272 1 -5.31329 10.756 1.58386 -3.52108
273 1 -7.29292 12.5694 1.48169 -3.4831
274 1 -3.72227 10.6977 -0.422743 -3.55895
275 1 -1.86835 12.5066 -0.459358 -3.51926
276 1 -1.86092 10.6797 1.48233 -3.50936
277 1 -3.52682 12.4867 1.59351 -3.48881
278 1 -0.0631418 10.814 -0.447891 -3.49243
279 1 1.65409 12.5501 -0.471606 -3.46412
280 1 1.76207 10.6711 1.52874 -3.52039
281 1 -0.0190321 12.6378 1.41504 -3.5306
282 1 3.51613 10.7159 -0.43075 -3.54979
283 1 5.38373 12.4271 -0.371013 -3.52617
284 1 5.40524 10.6498 1.37016 -3.50547
285 1 3.51535 12.3134 1.47791 -3.49899
286 1 7.15315 10.6819 43.7969 -3.47745
287 1 9.0369 12.3818 43.9267 -3.45627
288 1 8.97724 10.6791 1.37489 -3.48032
289 1 7.0527 12.491 1.40957 -3.49353
290 1 10.8738 10.5514 43.9213 -3.51375
291 1 12.5282 12.3031 43.8456 -2.86766
292 1 12.7252 10.496 1.54992 -3.33132
293 1 10.7336 12.5946 1.47269 -3.32707
294 1 14.4496 10.3757 -0.329575 -2.68902
295 1 -10.6115 14.4359 44.0316 -2.70324
296 1 -8.96528 14.4776 1.57751 -3.09346
297 1 -7.22281 14.4437 -0.400857 -3.3085
298 1 -5.20628 16.2209 -0.344057 -2.98333
299 1 -5.26188 14.2668 1.47017 -3.48966
300 1 -6.89974 16.0993 1.57892 -2.72254
301 1 -3.6013 14.1662 -0.430155 -3.47493
302 1 -1.84311 16.1022 43.7739 -3.17052
303 1 -1.91418 14.2985 1.512 -3.48118
304 1 -3.5136 16.1229 1.49523 -3.05636
305 1 -0.178738 14.3437 43.7925 -3.48261
306 1 1.59983 16.1259 -0.367598 -3.12882
307 1 1.92307 14.2196 1.44633 -3.47446
308 1 0.0035505 16.1811 1.45564 -3.16033
309 1 3.5956 14.1749 -0.426119 -3.48172
310 1 5.39576 16.0548 -0.488248 -2.98912
311 1 5.26336 14.3305 1.39071 -3.44262
312 1 3.60991 16.0579 1.21832 -3.04014
313 1 7.14702 14.2377 43.8487 -3.38737
314 1 8.96551 14.422 1.37842 -3.11121
315 1 6.99797 16.0249 1.39101 -2.73894
316 1 10.731 14.2111 43.6035 -2.70577
317 1 -0.124107 17.8415 -0.432438 -2.34245
318 1 -5.36292 -15.8534 3.1999 -3.04592
319 1 -7.03657 -15.915 5.05035 -2.7698
320 1 -1.9177 -16.2263 3.36954 -3.12659
321 1 -3.68414 -16.0323 5.11498 -3.05014
322 1 -0.08129 -17.9006 3.05627 -2.29323
323 1 1.7826 -16.248 3.11297 -3.14294
324 1 0.0156965 -16.2895 5.06881 -3.22305
325 1 5.4876 -15.9467 2.99992 -2.95936
326 1 3.50349 -16.1748 4.98489 -3.01706
327 1 7.11508 -16.1181 5.04607 -2.66874
328 1 -12.4399 -12.336 3.31766 -2.82562
329 1 -10.7309 -14.1597 3.32866 -2.75299
330 1 -8.91588 -12.5454 3.31776 -3.42854
331 1 -9.18918 -14.5014 5.18064 -3.04203
332 1 -10.7651 -12.2892 5.16121 -3.36287
333 1 -7.29433 -14.2044 3.23065 -3.31375
334 1 -5.39855 -12.5622 3.3598 -3.54324
335 1 -5.41735 -14.2378 5.3242 -3.37612
336 1 -7.22264 -12.6843 5.27819 -3.49325
337 1 -3.51648 -14.1992 3.36773 -3.43795
338 1 -1.78024 -12.5243 3.39504 -3.50583
339 1 -1.81012 -14.3831 5.27313 -3.50468
340 1 -3.58656 -12.5834 5.18869 -3.51439
341 1 0.0374269 -14.3524 3.28308 -3.52765
342 1 1.7427 -12.5477 3.30604 -3.51202
343 1 1.82041 -14.4902 4.90749 -3.4456
344 1 0.0185194 -12.5101 5.12078 -3.4927
345 1 3.45207 -14.4371 3.0876 -3.45596
346 1 5.38103 -12.6009 3.1659 -3.50694
347 1 5.31136 -14.4585 4.96858 -3.46443
348 1 3.63744 -12.576 4.96483 -3.52963
349 1 7.05334 -14.3028 2.95538 -3.24237
350 1 9.03368 -12.4685 3.19826 -3.45056
351 1 8.88062 -14.3664 4.8276 -3.12005
352 1 7.21746 -12.6372 4.95477 -3.50082
353 1 10.6967 -14.2384 3.18925 -2.73597
354 1 12.5156 -12.5578 3.36604 -2.84498
355 1 10.8441 -12.6838 5.0872 -3.30586
356 1 -14.3583 -10.6687 3.21742 -2.68423
357 1 -12.6633 -8.83524 3.15393 -3.49652
358 1 -12.6565 -10.6581 5.1261 -3.30071
359 1 -14.3913 -8.68437 5.11595 -3.14978
360 1 -10.8975 -10.7418 3.22738 -3.40293
361 1 -8.86799 -9.06663 3.17189 -3.45036
362 1 -8.98188 -10.6676 5.14127 -3.49356
363 1 -10.8914 -8.99609 5.13304 -3.52164
364 1 -7.22879 -10.8153 3.35222 -3.49027
365 1 -5.23125 -8.97124 3.20467 -3.46404
366 1 -5.38924 -10.6408 5.22598 -3.50298
367 1 -7.18264 -8.96316 5.06062 -3.47262
368 1 -3.56212 -10.6096 3.19738 -3.45499
369 1 -1.81365 -8.99534 3.28092 -3.48826
370 1 -1.83921 -10.8191 5.26196 -3.52079
371 1 -3.54056 -8.88934 5.13053 -3.48553
372 1 -0.0338164 -10.7505 3.25746 -3.51186
373 1 1.76194 -9.0216 3.38404 -3.52292
374 1 1.75996 -10.8354 5.09176 -3.48209
375 1 -0.113955 -8.91491 5.09425 -3.52442
376 1 3.75302 -10.6898 3.24187 -3.52769
377 1 5.46426 -8.92442 3.17355 -3.44342
378 1 5.37151 -10.8196 5.25465 -3.48242
379 1 3.61745 -9.08046 5.11371 -3.50817
380 1 7.1649 -10.8137 3.3129 -3.51353
381 1 8.9535 -9.03763 3.3997 -3.5192
382 1 9.09033 -10.8664 4.99039 -3.49335
383 1 7.20068 -9.05781 5.16755 -3.53657
384 1 10.8728 -10.7268 3.18645 -3.50979
385 1 12.5689 -8.93269 3.30635 -3.45136
386 1 12.5587 -10.8814 5.13648 -3.31374
387 1 10.9278 -9.10092 5.15227 -3.49123
388 1 14.2996 -10.6518 3.26066 -2.73956
389 1 14.2706 -9.14402 5.22296 -3.10131
390 1 -16.37 -5.27614 3.24898 -2.95509
391 1 -16.3804 -7.0059 5.25833 -2.68004
392 1 -14.5465 -7.12306 3.30473 -3.3431
393 1 -12.54 -5.30961 3.19219 -3.47695
394 1 -12.5062 -7.11357 4.99537 -3.46392
395 1 -14.4386 -5.52494 5.12905 -3.4745
396 1 -10.7018 -7.20478 3.25313 -3.50612
397 1 -9.06011 -5.33797 3.193 -3.50452
398 1 -8.90699 -7.24504 5.02474 -3.54418
399 1 -10.8671 -5.41259 5.15156 -3.43375
400 1 -7.08049 -7.2132 3.27448 -3.49962
401 1 -5.25836 -5.20349 3.23102 -3.4962
402 1 -5.46334 -7.16768 5.13781 -3.51229
403 1 -7.13709 -5.3553 5.06724 -3.52376
404 1 -3.5619 -7.21783 3.26408 -3.51892
405 1 -1.78784 -5.32805 3.20115 -3.486
406 1 -1.93733 -7.12946 5.2622 -3.45617
407 1 -3.71907 -5.22254 5.04734 -3.51408
408 1 -0.104992 -7.22455 3.24828 -3.5121
409 1 1.6926 -5.4455 3.31084 -3.52526
410 1 1.78576 -7.1474 5.15752 -3.51087
411 1 -0.0647336 -5.47701 5.14622 -3.51328
412 1 3.5887 -7.32599 3.29372 -3.51339
413 1 5.35825 -5.36773 3.12535 -3.51448
414 1 5.32811 -7.25843 5.08627 -3.52873
415 1 3.54835 -5.47049 5.09398 -3.50588
416 1 7.10067 -7.15387 3.2604 -3.51407
417 1 9.13593 -5.42195 3.29249 -3.51419
418 1 8.9543 -7.14222 5.17325 -3.49458
419 1 7.15458 -5.451 5.06423 -3.50339
420 1 10.7795 -7.2375 3.28514 -3.50635
421 1 12.6093 -5.41868 3.19488 -3.54271
422 1 12.6653 -7.12146 5.0709 -3.54926
423 1 10.7523 -5.27771 5.24534 -3.49682
424 1 14.3793 -7.22991 3.19362 -3.37211
425 1 16.1591 -5.35219 3.13342 -2.99232
426 1 16.1127 -7.08398 4.92356 -2.68363
427 1 14.4552 -5.22783 5.11648 -3.41664
428 1 -16.3393 -1.91915 3.37419 -3.13379
429 1 -16.2649 -3.76294 5.22311 -3.03408
430 1 -14.5122 -3.71559 3.32645 -3.43672
431 1 -12.7992 -1.97051 3.34951 -3.4758
432 1 -12.5443 -3.85234 5.25292 -3.46141
433 1 -14.4461 -2.02161 5.30543 -3.49162
434 1 -10.924 -3.54445 3.29245 -3.49543
435 1 -9.0767 -1.76898 3.14722 -3.49774
436 1 -9.01329 -3.66722 5.09367 -3.52935
437 1 -10.9234 -1.89206 5.11256 -3.53266
438 1 -7.24423 -3.54382 3.33747 -3.52024
439 1 -5.38671 -1.68953 3.26315 -3.53254
440 1 -5.50643 -3.43524 5.18264 -3.49892
441 1 -7.26394 -1.72274 5.13478 -3.47558
442 1 -3.45333 -3.47139 3.20147 -3.50472
443 1 -1.81401 -1.57551 3.41164 -3.47683
444 1 -1.77903 -3.48853 5.20042 -3.4967
445 1 -3.52745 -1.79853 5.23391 -3.50156
446 1 -0.208964 -3.41018 3.30577 -3.49902
447 1 1.76684 -1.77492 3.3017 -3.519
448 1 1.92304 -3.6136 5.14826 -3.51675
449 1 0.0411373 -1.79281 5.19268 -3.49952
450 1 3.53911 -3.68043 3.16456 -3.4794
451 1 5.18928 -1.92339 3.24564 -3.48146
452 1 5.3629 -3.75021 5.04555 -3.53433
453 1 3.60271 -1.84645 5.162 -3.52715
454 1 7.33794 -3.63436 3.34877 -3.51526
455 1 9.02079 -1.78849 3.34025 -3.50099
456 1 8.91958 -3.52159 5.23955 -3.50109
457 1 7.05391 -1.81484 5.18082 -3.5036
458 1 10.8319 -3.53202 3.39849 -3.49324
459 1 12.6901 -1.79447 3.35948 -3.53703
460 1 12.6603 -3.70949 5.16798 -3.47052
461 1 10.8901 -1.88152 5.08851 -3.50193
462 1 14.4667 -3.60679 3.28977 -3.46775
463 1 16.1456 -1.72494 3.30614 -3.04486
464 1 16.3928 -3.61249 5.02426 -2.98441
465 1 14.4388 -1.82086 5.23689 -3.49955
466 1 -17.9884 -0.198335 3.99093 -2.38984
467 1 -16.4602 1.67002 3.43872 -3.10224
468 1 -15.9111 -0.00305141 5.20931 -3.17593
469 1 -14.4901 -0.0724097 3.17305 -3.46794
470 1 -12.7134 1.79657 3.22943 -3.50218
471 1 -12.7502 -0.148844 4.89899 -3.50538
472 1 -14.4412 1.77274 5.09714 -3.43241
473 1 -10.8823 -0.107142 3.10662 -3.50951
474 1 -9.16053 1.70044 3.31567 -3.5243
475 1 -9.04221 -0.108514 4.97797 -3.47946
476 1 -10.9208 1.66307 5.02837 -3.52203
477 1 -7.26851 0.0142668 3.27577 -3.49517
478 1 -5.49449 1.95869 3.40033 -3.47919
479 1 -5.44996 -0.06294 5.12734 -3.53646
480 1 -7.30917 1.67106 5.01337 -3.48811
481 1 -3.55345 0.177699 3.29681 -3.4978
482 1 -1.54017 1.86376 3.31103 -3.51903
483 1 -1.81211 0.0137874 5.22263 -3.49175
484 1 -3.54504 1.81051 5.1867 -3.51227
485 1 0.201664 0.100426 3.29994 -3.43138
486 1 1.9316 1.90014 3.19301 -3.5209
487 1 1.78442 0.045843 5.02697 -3.44111
488 1 0.183481 1.95571 5.21917 -3.48454
489 1 3.70064 0.0834736 3.34929 -3.5272
490 1 5.43615 1.97778 3.15478 -3.502
491 1 5.43455 0.0191369 5.20024 -3.4965
492 1 3.47022 1.71149 5.20645 -3.44049
493 1 7.02943 0.0418591 3.2101 -3.47782
494 1 8.91812 1.84444 3.24351 -3.51561
495 1 9.0576 -0.0295344 5.11266 -3.53038
496 1 7.16245 1.85965 5.19526 -3.52455
497 1 10.8367 0.0369196 3.36104 -3.5043
498 1 12.6484 1.77981 3.48784 -3.51618
499 1 12.5792 0.00591121 5.17649 -3.53133
500 1 10.664 1.8178 5.21922 -3.49182
501 1 14.429 0.0224537 3.32223 -3.51218
502 1 16.191 1.84711 3.4288 -3.18224
503 1 16.049 -0.0426812 5.20345 -3.21973
504 1 14.4622 1.80368 5.39757 -3.4771
505 1 17.6857 -0.142426 3.42243 -2.36391
506 1 -16.1943 5.43939 3.42518 -3.00436
507 1 -16.4442 3.46331 5.30444 -2.95652
508 1 -14.5288 3.40697 3.22475 -3.44982
509 1 -12.9566 5.24415 3.2715 -3.48088
510 1 -12.6585 3.49727 5.14947 -3.50322
511 1 -14.4903 5.39604 5.18611 -3.38478
512 1 -10.9139 3.52752 3.28707 -3.49405
513 1 -9.20247 5.37837 3.20715 -3.44296
514 1 -9.1644 3.5088 5.18262 -3.50352
515 1 -10.9072 5.21367 5.02273 -3.47718
516 1 -7.38694 3.62338 3.36284 -3.47052
517 1 -5.30336 5.52995 3.28256 -3.50545
518 1 -5.36294 3.57338 5.1877 -3.488
519 1 -7.24083 5.19803 5.07064 -3.48859
520 1 -3.60224 3.55931 3.33005 -3.50841
521 1 -1.69376 5.28367 3.36976 -3.52474
522 1 -1.66278 3.54035 5.3701 -3.46224
523 1 -3.58649 5.38616 5.21428 -3.52153
524 1 0.138339 3.67231 3.35617 -3.47768
525 1 1.86268 5.37538 3.29764 -3.48699
526 1 1.89634 3.74271 5.18632 -3.52732
527 1 -0.00335838 5.46599 5.27551 -3.50559
528 1 3.60267 3.62917 3.40841 -3.48832
529 1 5.47241 5.31731 3.28638 -3.50652
530 1 5.38403 3.63529 5.24437 -3.51082
531 1 3.66077 5.40755 5.2282 -3.49508
532 1 7.29238 3.62779 3.26344 -3.48583
533 1 9.12054 5.4057 3.13482 -3.51783
534 1 8.99144 3.60461 5.08016 -3.49674
535 1 7.18777 5.34902 5.25622 -3.50998
536 1 10.9009 3.59178 3.26853 -3.51795
537 1 12.6362 5.29591 3.40085 -3.50881
538 1 12.5827 3.58885 5.20214 -3.52416
539 1 10.6855 5.36255 5.14481 -3.50512
540 1 14.4641 3.61541 3.51641 -3.44586
541 1 16.2412 5.19669 3.47892 -2.9777
542 1 16.3082 3.46676 5.43292 -3.05357
543 1 14.3958 5.29614 5.27786 -3.46568
544 1 -15.9788 7.1394 5.31756 -2.70443
545 1 -14.4808 7.17974 3.28523 -3.3527
546 1 -12.567 8.93575 3.34066 -3.45191
547 1 -12.4311 7.1579 5.11047 -3.48484
548 1 -14.3846 8.90966 5.14477 -3.11572
549 1 -10.8796 7.15126 3.32113 -3.45649
550 1 -9.06221 8.95122 3.41558 -3.54019
551 1 -9.00396 6.97437 5.09188 -3.53865
552 1 -10.7586 8.95192 5.32474 -3.49158
553 1 -7.1639 7.12377 3.31783 -3.51051
554 1 -5.40917 8.96801 3.28271 -3.50766
555 1 -5.52674 7.18401 5.23227 -3.51765
556 1 -7.29161 8.87591 5.28206 -3.509
557 1 -3.48111 7.28176 3.40218 -3.46997
558 1 -1.7782 8.81441 3.31221 -3.45206
559 1 -1.71747 7.15897 5.17107 -3.49226
560 1 -3.71012 8.99185 5.26759 -3.53937
561 1 0.0943817 7.07501 3.36319 -3.46974
562 1 1.75041 8.83524 3.32076 -3.51079
563 1 1.81805 7.02963 5.20882 -3.49745
564 1 0.107977 8.80762 5.06958 -3.48627
565 1 3.71667 7.06321 3.28199 -3.54427
566 1 5.4789 8.89661 3.41351 -3.51185
567 1 5.44231 7.17722 5.19875 -3.54114
568 1 3.55718 8.95966 5.11861 -3.50719
569 1 7.12055 7.08187 3.27563 -3.4957
570 1 9.03753 8.81536 3.30522 -3.54083
571 1 8.94987 7.04269 5.17252 -3.4991
572 1 7.32391 8.96806 5.12849 -3.49714
573 1 10.8976 7.11161 3.34349 -3.47188
574 1 12.6677 8.7523 3.34878 -3.44317
575 1 12.6624 7.03939 5.13602 -3.51024
576 1 10.8948 8.80283 5.20902 -3.50963
577 1 14.5782 7.08661 3.43512 -3.35431
578 1 16.341 6.8922 5.19271 -2.6952
579 1 14.5698 8.83625 5.26125 -3.10062
580 1 -14.2995 10.7471 3.30459 -2.68945
581 1 -12.4585 12.496 3.46228 -2.82309
582 1 -12.7116 10.7046 5.34067 -3.33634
583 1 -10.8694 10.6549 3.3787 -3.48865
584 1 -8.87682 12.4354 3.38028 -3.47543
585 1 -8.86031 10.7474 5.20986 -3.49333
586 1 -10.7743 12.6265 5.30959 -3.32294
587 1 -7.18287 10.6911 3.4058 -3.49007
588 1 -5.37029 12.5415 3.3827 -3.55263
589 1 -5.45157 10.7696 5.26818 -3.49663
590 1 -7.24791 12.6811 5.21302 -3.51719
591 1 -3.4726 10.6603 3.37506 -3.51604
592 1 -1.75963 12.5684 3.37549 -3.48456
593 1 -1.69574 10.6049 5.07338 -3.49669
594 1 -3.6315 12.4024 5.27826 -3.50353
595 1 -0.0656038 10.8459 3.2671 -3.49498
596 1 1.77017 12.4906 3.32154 -3.52216
597 1 1.76069 10.7076 4.98054 -3.49486
598 1 -0.11596 12.5251 5.14194 -3.44168
599 1 3.61929 10.6035 3.29682 -3.50633
600 1 5.30601 12.4035 3.16728 -3.49771
601 1 5.51632 10.8831 5.05128 -3.443
602 1 3.53211 12.5522 5.05017 -3.52467
603 1 7.21383 10.6963 3.16382 -3.53079
604 1 8.97395 12.46 3.25305 -3.46532
605 1 9.03702 10.6773 5.15041 -3.52211
606 1 7.1053 12.5864 5.09065 -3.49116
607 1 10.7048 10.6155 3.2148 -3.5172
608 1 12.4927 12.4916 3.36049 -2.85459
609 1 12.4871 10.7195 5.21885 -3.2907
610 1 10.6499 12.5954 4.93124 -3.30192
611 1 14.2621 10.6262 3.62668 -2.7422
612 1 -10.7854 14.1029 3.26796 -2.73767
613 1 -9.03528 14.4585 5.0639 -3.07617
614 1 -7.06826 14.3881 3.15838 -3.3012
615 1 -5.24933 16.0783 3.36528 -2.98723
616 1 -5.26234 14.4986 5.25126 -3.4147
617 1 -7.06654 15.9873 5.28338 -2.73742
618 1 -3.53823 14.392 3.44231 -3.45929
619 1 -1.73246 16.1988 3.31091 -3.10376
620 1 -1.88606 14.4656 5.22745 -3.49037
621 1 -3.67449 16.4114 5.20874 -2.94796
622 1 -0.0316412 14.3734 3.24228 -3.52694
623 1 1.84624 15.9471 3.26712 -3.14441
624 1 1.76932 14.3612 5.12172 -3.48747
625 1 0.0472093 16.2577 5.37135 -3.19323
626 1 3.59972 14.233 3.16587 -3.4323
627 1 5.26012 16.1067 3.24195 -3.01321
628 1 5.33494 14.2941 4.94261 -3.46393
629 1 3.60492 16.0578 5.1433 -3.06307
630 1 7.17719 14.4626 3.15621 -3.36581
631 1 8.84336 14.4301 5.10882 -3.11271
632 1 6.96843 16.0786 5.02834 -2.75911
633 1 10.4635 14.4186 3.3084 -2.72116
634 1 0.0977516 17.6033 3.18705 -2.34178
635 1 -5.31598 -16.21 6.91882 -2.98428
636 1 -6.98741 -16.1606 8.84923 -2.70776
637 1 -1.9571 -16.1491 7.07122 -3.14405
638 1 -3.70216 -16.3465 8.91835 -3.00789
639 1 0.257536 -17.8328 6.8323 -2.28149
640 1 1.77854 -16.0302 6.95847 -3.14946
641 1 -0.0497824 -16.1711 8.65031 -3.24114
642 1 5.23525 -16.1978 6.8241 -2.99148
643 1 3.57275 -16.2345 8.61084 -2.99884
644 1 7.13838 -15.9031 8.67809 -2.76877
645 1 -12.6334 -12.3842 6.95611 -2.87677
646 1 -10.834 -14.1834 6.93661 -2.74532
647 1 -9.08662 -12.4172 7.02198 -3.48195
648 1 -9.08618 -14.341 8.77835 -3.11484
649 1 -10.7792 -12.4733 8.78541 -3.3342
650 1 -7.35276 -14.3192 7.07925 -3.35668
651 1 -5.43108 -12.5045 6.98042 -3.50076
652 1 -5.35574 -14.3736 8.78282 -3.45643
653 1 -7.29586 -12.5086 8.89912 -3.51776
654 1 -3.6363 -14.3628 7.15037 -3.41655
655 1 -1.83995 -12.5809 7.08828 -3.42434
656 1 -1.82164 -14.2942 8.70066 -3.4261
657 1 -3.63926 -12.4959 8.82068 -3.51266
658 1 0.0252889 -14.296 6.89063 -3.48664
659 1 1.84845 -12.6913 6.81138 -3.4784
660 1 1.75837 -14.2535 8.72729 -3.46652
661 1 -0.0635996 -12.642 8.67588 -3.43389
662 1 3.57292 -14.2776 6.85614 -3.44748
663 1 5.29112 -12.6493 6.90843 -3.46822
664 1 5.20867 -14.4019 8.77805 -3.44306
665 1 3.56309 -12.5218 8.79567 -3.49863
666 1 6.99329 -14.2869 6.86288 -3.35355
667 1 8.89934 -12.5886 6.86303 -3.41372
668 1 9.04943 -14.4345 8.85556 -3.0275
669 1 7.18792 -12.7097 8.81135 -3.53933
670 1 10.4846 -14.2354 6.98845 -2.72381
671 1 12.407 -12.5852 7.03076 -2.90597
672 1 10.6948 -12.7219 8.88581 -3.26349
673 1 -14.2664 -10.5397 6.91486 -2.76533
674 1 -12.6123 -8.69252 7.0702 -3.48054
675 1 -12.693 -10.5841 8.87037 -3.36006
676 1 -14.6037 -8.90334 8.74124 -3.11276
677 1 -10.8918 -10.6528 7.20344 -3.49466
678 1 -8.89927 -8.92881 6.99322 -3.4815
679 1 -8.9683 -10.6891 8.92756 -3.51595
680 1 -10.7273 -8.96156 9.06453 -3.45816
681 1 -7.18766 -10.5993 7.01423 -3.51427
682 1 -5.2861 -8.88663 6.91417 -3.46234
683 1 -5.39584 -10.7513 9.0128 -3.48816
684 1 -7.088 -8.74456 8.78816 -3.50576
685 1 -3.70921 -10.6802 6.98818 -3.46454
686 1 -1.7866 -8.96927 6.91192 -3.52997
687 1 -1.84521 -10.8372 8.7726 -3.50655
688 1 -3.6442 -9.07873 8.77573 -3.50831
689 1 -0.0537101 -10.8894 6.96941 -3.48531
690 1 1.59526 -9.13276 6.88397 -3.51643
691 1 1.6662 -10.842 8.81806 -3.53385
692 1 -0.160534 -8.97259 8.86848 -3.5173
693 1 3.43621 -10.8711 6.9168 -3.51166
694 1 5.38753 -9.11873 6.99696 -3.49129
695 1 5.40463 -10.891 8.77461 -3.51116
696 1 3.63114 -9.2342 8.7342 -3.48629
697 1 7.17568 -10.9201 6.99689 -3.52172
698 1 9.08502 -9.03882 6.91293 -3.52815
699 1 9.10731 -10.9374 8.77952 -3.48852
700 1 7.32858 -9.02256 8.85482 -3.51553
701 1 10.7141 -10.8751 6.9654 -3.47836
702 1 12.5445 -8.99884 6.93699 -3.47191
703 1 12.4706 -10.8303 8.70732 -3.3487
704 1 10.7127 -8.88466 8.71388 -3.53163
705 1 14.2386 -10.8569 6.94042 -2.75264
706 1 14.3582 -9.08938 8.68512 -3.10352
707 1 -16.2143 -5.23766 7.21961 -2.98168
708 1 -16.283 -6.93792 8.81575 -2.73681
709 1 -14.5563 -7.13708 7.00816 -3.32692
710 1 -12.7336 -5.54501 7.07998 -3.53508
711 1 -12.77 -7.2101 8.98652 -3.44268
712 1 -14.4039 -5.3343 8.95596 -3.43699
713 1 -10.6434 -7.29574 7.00451 -3.46894
714 1 -9.05999 -5.37225 6.94552 -3.5195
715 1 -8.97024 -7.14636 8.90959 -3.46795
716 1 -10.91 -5.6535 8.92958 -3.49396
717 1 -7.1434 -7.05626 6.99579 -3.49537
718 1 -5.45063 -5.37258 7.00867 -3.48572
719 1 -5.26298 -7.07311 8.84139 -3.51313
720 1 -7.1683 -5.45801 8.84535 -3.47446
721 1 -3.65128 -7.05445 6.95037 -3.49363
722 1 -1.69255 -5.34946 6.96607 -3.48544
723 1 -1.85069 -7.08999 8.79231 -3.561
724 1 -3.4631 -5.14683 8.96981 -3.45364
725 1 0.018514 -7.18894 7.02487 -3.48762
726 1 1.84745 -5.49528 6.99445 -3.51749
727 1 1.71678 -7.3001 8.74547 -3.51088
728 1 0.0648998 -5.37806 8.87204 -3.5174
729 1 3.64543 -7.40703 7.01125 -3.52528
730 1 5.38979 -5.51846 6.939 -3.51897
731 1 5.42711 -7.32179 8.83011 -3.4881
732 1 3.69388 -5.60181 8.73444 -3.50339
733 1 7.19621 -7.14906 6.88513 -3.5009
734 1 8.94568 -5.42952 7.01211 -3.48243
735 1 9.02736 -7.16396 8.76681 -3.49565
736 1 7.14758 -5.46502 8.82682 -3.52889
737 1 10.7562 -7.11809 6.83465 -3.49158
738 1 12.7756 -5.34705 6.97504 -3.48703
739 1 12.66 -7.19131 8.68542 -3.50636
740 1 10.8099 -5.52236 8.75946 -3.52129
741 1 14.658 -7.24856 6.92608 -3.30989
742 1 16.0948 -5.18566 7.05445 -2.99532
743 1 16.197 -7.03971 8.69565 -2.6907
744 1 14.4195 -5.39674 8.77405 -3.39613