ITEM: TIMESTEP
2000
ITEM: NUMBER OF ATOMS
3804
ITEM: BOX BOUNDS ss ss pp
-1.8158693212555505e+01 1.8116233570801374e+01
-1.7968111331413944e+01 1.7970917660724165e+01
-4.3380000000000002e-02 4.3423380000000002e+01
ITEM: ATOMS id type x y z c_peratom
1 1 -5.57487 -16.421 43.6477 -2.94017
2 1 -7.19244 -15.9881 1.9841 -2.74081
3 1 -1.92224 -16.1311 -0.105424 -3.14991
4 1 -3.53374 -16.1243 1.7057 -3.08428
5 1 -0.107386 -17.9741 0.208951 -2.33275
6 1 1.85624 -16.3132 0.0612925 -3.14458
7 1 -0.18348 -16.1276 1.77209 -3.21543
8 1 5.35741 -16.3361 -0.0296292 -2.98274
9 1 3.83539 -16.3252 1.89827 -3.00035
10 1 7.27468 -16.0584 1.68806 -2.75892
11 1 -12.829 -12.673 -0.240215 -2.77013
12 1 -10.7505 -14.3477 -0.0299394 -2.7076
13 1 -9.07554 -12.7517 43.4487 -3.41816
14 1 -9.10327 -14.3938 1.89092 -3.1287
15 1 -10.8827 -12.607 1.82336 -3.3438
16 1 -7.31505 -14.4732 43.3737 -3.3802
17 1 -5.41433 -12.7081 -0.218238 -3.48678
18 1 -5.45184 -14.3471 1.71956 -3.46175
19 1 -7.2095 -12.6028 1.78965 -3.49311
20 1 -3.76057 -14.4785 -0.196457 -3.45467
21 1 -1.79813 -12.739 -0.199832 -3.49837
22 1 -1.73852 -14.3355 1.67153 -3.45181
23 1 -3.63789 -12.7169 1.68341 -3.5031
24 1 0.0136815 -14.5297 43.2701 -3.4971
25 1 1.83018 -12.6572 43.3817 -3.50204
26 1 1.67866 -14.4173 1.70115 -3.47091
27 1 0.0094627 -12.6688 1.68089 -3.48344
28 1 3.55508 -14.5277 0.00893252 -3.50195
29 1 5.31802 -12.5429 43.4352 -3.50765
30 1 5.50311 -14.477 1.78703 -3.45854
31 1 3.5538 -12.7434 1.84805 -3.53699
32 1 7.20841 -14.249 43.4584 -3.34429
33 1 9.21209 -12.5894 43.3747 -3.40764
34 1 9.01918 -14.2512 1.71158 -3.17489
35 1 7.22921 -12.5822 1.90656 -3.46503
36 1 10.934 -14.2787 -0.0136777 -2.72756
37 1 12.8888 -12.6388 43.3535 -2.80685
38 1 11.004 -12.7057 1.87903 -3.33814
39 1 -14.4534 -11.0425 -0.255047 -2.62648
40 1 -12.7459 -9.11369 0.0486859 -3.47875
41 1 -12.7335 -10.8683 1.85716 -3.31882
42 1 -14.5849 -9.05736 1.90241 -3.10788
43 1 -10.9558 -10.8971 43.4459 -3.53658
44 1 -9.01474 -9.11931 -0.0537339 -3.50245
45 1 -9.10501 -10.7531 1.84102 -3.50822
46 1 -10.9291 -8.91653 1.75244 -3.52587
47 1 -7.31738 -11.0063 43.3957 -3.53265
48 1 -5.52026 -9.15554 43.3517 -3.49342
49 1 -5.3395 -11.0338 1.62553 -3.48177
50 1 -7.05995 -9.06441 1.74125 -3.51486
51 1 -3.71433 -10.8261 43.3333 -3.49869
52 1 -1.76286 -9.06706 43.4204 -3.53031
53 1 -1.8395 -10.9124 1.69502 -3.54195
54 1 -3.68058 -9.04084 1.76548 -3.54303
55 1 0.0437138 -10.9582 43.4585 -3.5072
56 1 1.81689 -9.01504 43.4385 -3.50864
57 1 1.75437 -10.8744 1.87518 -3.53834
58 1 -0.0818968 -9.14523 1.74666 -3.50296
59 1 3.49205 -10.8774 43.3971 -3.49293
60 1 5.45105 -9.1571 43.5038 -3.5445
61 1 5.51025 -10.9164 1.82262 -3.45212
62 1 3.64529 -9.08553 1.68951 -3.51661
63 1 7.17064 -10.9562 43.4784 -3.48044
64 1 9.03441 -9.26889 -0.0261539 -3.4779
65 1 9.17138 -11.0402 1.82375 -3.51901
66 1 7.32707 -9.22171 1.77463 -3.51493
67 1 11.0433 -10.9225 43.396 -3.49508
68 1 12.6026 -9.08361 43.3758 -3.44308
69 1 12.8263 -10.8568 1.75251 -3.3469
70 1 10.905 -9.20899 1.92369 -3.49365
71 1 14.4128 -10.7207 43.1853 -2.75999
72 1 14.6881 -9.23119 1.73524 -3.05808
73 1 -16.5438 -5.64427 0.0862138 -2.90689
74 1 -16.5752 -7.23483 1.79237 -2.663
75 1 -14.6802 -7.14917 0.142665 -3.34977
76 1 -12.82 -5.48342 43.5111 -3.50844
77 1 -12.7531 -7.1269 1.80823 -3.48462
78 1 -14.6894 -5.40248 1.85793 -3.45892
79 1 -11.0363 -7.30245 -0.148739 -3.44798
80 1 -9.05342 -5.45223 -0.126724 -3.51373
81 1 -9.03934 -7.31818 1.71514 -3.5371
82 1 -10.9105 -5.49013 1.71507 -3.53287
83 1 -7.24607 -7.36893 -0.113155 -3.52482
84 1 -5.43044 -5.43237 -0.107891 -3.51702
85 1 -5.3927 -7.241 1.84367 -3.4558
86 1 -7.20515 -5.47331 1.72715 -3.51357
87 1 -3.77144 -7.22798 43.5006 -3.51938
88 1 -1.80486 -5.57303 43.3955 -3.4704
89 1 -1.84477 -7.30357 1.84801 -3.47611
90 1 -3.61596 -5.49847 1.86362 -3.51366
91 1 -0.0211376 -7.1659 43.6052 -3.47091
92 1 1.83557 -5.4408 43.5172 -3.50417
93 1 1.87117 -7.26826 1.74607 -3.52547
94 1 0.0485091 -5.46695 1.81875 -3.50038
95 1 3.72014 -7.14639 43.3942 -3.49207
96 1 5.44752 -5.48687 43.3929 -3.5103
97 1 5.35839 -7.18396 1.76989 -3.48684
98 1 3.58445 -5.39374 1.91337 -3.47648
99 1 7.35422 -7.35401 43.3806 -3.50512
100 1 8.8798 -5.4022 -0.0474016 -3.52258
101 1 9.03291 -7.42088 1.85036 -3.48517
102 1 7.22362 -5.63546 1.84109 -3.50207
103 1 10.7323 -7.28509 43.6287 -3.50563
104 1 12.6323 -5.6766 0.171646 -3.51079
105 1 12.6104 -7.52679 1.87211 -3.47334
106 1 10.7154 -5.47833 1.81317 -3.50936
107 1 14.5381 -7.40925 43.5041 -3.35468
108 1 16.3642 -5.27668 43.3429 -2.98935
109 1 16.3276 -7.12084 1.71663 -2.69638
110 1 14.5695 -5.45779 1.77441 -3.46582
111 1 -16.2368 -1.78749 43.1797 -3.15731
112 1 -16.4971 -3.78967 1.71117 -2.99855
113 1 -14.6746 -3.716 -0.0264141 -3.48896
114 1 -12.6724 -1.83597 0.0654594 -3.4989
115 1 -12.7424 -3.57974 1.86552 -3.50446
116 1 -14.6811 -1.88836 1.67242 -3.48871
117 1 -10.8892 -3.72481 43.3667 -3.52072
118 1 -8.98796 -1.75212 -0.0133495 -3.53398
119 1 -9.02668 -3.69572 1.71849 -3.48745
120 1 -10.794 -1.88863 1.72291 -3.51713
121 1 -7.22278 -3.69394 -0.0592459 -3.53192
122 1 -5.39126 -1.91117 43.4995 -3.50494
123 1 -5.35689 -3.62875 1.7351 -3.49864
124 1 -7.18648 -1.73697 1.75336 -3.51681
125 1 -3.55148 -3.75911 43.4921 -3.52661
126 1 -1.65813 -1.88567 43.5169 -3.4777
127 1 -1.73076 -3.71458 1.76891 -3.5436
128 1 -3.56009 -1.91463 1.85578 -3.50686
129 1 0.0739409 -3.62511 43.4713 -3.51374
130 1 1.92752 -1.71863 43.3286 -3.52087
131 1 1.79988 -3.68649 1.76316 -3.50779
132 1 0.0450984 -1.83217 1.82489 -3.49815
133 1 3.57161 -3.68635 -0.0345139 -3.54886
134 1 5.42641 -1.90907 -0.119332 -3.49326
135 1 5.39924 -3.73343 1.79547 -3.53031
136 1 3.72203 -1.90747 1.77329 -3.53166
137 1 7.1188 -3.61618 -0.165402 -3.49234
138 1 9.03895 -2.01292 -0.109095 -3.5149
139 1 8.99058 -3.69028 1.81269 -3.51464
140 1 7.16295 -1.87551 1.68761 -3.51231
141 1 10.9131 -3.70408 -0.0127741 -3.47654
142 1 12.7176 -1.96879 -0.10944 -3.46733
143 1 12.6201 -3.63961 1.75806 -3.45213
144 1 10.9376 -1.93446 1.62391 -3.48982
145 1 14.5538 -3.6157 0.0144107 -3.37983
146 1 16.4179 -1.94951 -0.0239069 -3.14305
147 1 16.2778 -3.62443 1.87925 -3.04365
148 1 14.3764 -2.03248 1.72987 -3.42508
149 1 -18.1035 -0.0916272 42.8859 -2.44478
150 1 -16.6468 1.92742 -0.255436 -3.09245
151 1 -16.6224 -0.0970954 1.55957 -3.21484
152 1 -14.6003 -0.0633831 43.4259 -3.41331
153 1 -12.7298 1.67274 -0.0261503 -3.50856
154 1 -12.7414 -0.119122 1.83684 -3.50995
155 1 -14.7484 1.42706 1.79049 -3.36377
156 1 -10.9666 -0.0674708 43.4148 -3.50412
157 1 -9.05621 1.81084 43.4163 -3.50186
158 1 -9.10707 0.0580019 1.73947 -3.53543
159 1 -11.0014 1.72951 1.68021 -3.47095
160 1 -7.23159 0.144057 43.4794 -3.46202
161 1 -5.40219 1.87512 43.4627 -3.50099
162 1 -5.39942 -0.0749861 1.67348 -3.51056
163 1 -7.18439 1.72801 1.74927 -3.46925
164 1 -3.49297 -0.129303 43.4445 -3.50252
165 1 -1.88148 1.66449 43.5637 -3.48983
166 1 -1.79805 -0.192899 1.82443 -3.4686
167 1 -3.75283 1.7481 1.89647 -3.51674
168 1 -0.025847 -0.0853153 43.4811 -3.51822
169 1 1.82365 1.63136 43.472 -3.53687
170 1 1.93748 -0.10527 1.80345 -3.49572
171 1 -0.0139565 1.77673 1.71865 -3.52626
172 1 3.65591 -0.0841029 43.4471 -3.47306
173 1 5.35756 1.70748 43.5148 -3.49479
174 1 5.42418 -0.0981022 1.72968 -3.517
175 1 3.65557 1.71992 1.83687 -3.51144
176 1 7.39152 -0.0786214 43.3964 -3.49732
177 1 9.1114 1.70257 0.0330754 -3.53106
178 1 9.07733 -0.186336 1.71725 -3.51966
179 1 7.29189 1.69557 1.79175 -3.43996
180 1 11.022 -0.197601 -0.131289 -3.50538
181 1 12.6014 1.75088 0.0684208 -3.48102
182 1 12.7181 -0.165099 1.77778 -3.54082
183 1 10.9635 1.59898 1.77484 -3.47665
184 1 14.6363 0.0336122 -0.0867575 -3.47781
185 1 16.5329 1.79344 43.6745 -3.10142
186 1 16.3516 -0.100946 1.79877 -3.25949
187 1 14.5819 1.81157 1.73178 -3.48894
188 1 17.9452 -0.147445 -0.0999381 -2.36552
189 1 -16.4027 5.41373 -0.138114 -2.9773
190 1 -16.4705 3.63343 1.79496 -2.97377
191 1 -14.6003 3.51289 0.0671036 -3.47083
192 1 -12.7871 5.31691 43.3966 -3.51715
193 1 -12.7028 3.4717 1.72156 -3.48028
194 1 -14.4917 5.33343 1.63852 -3.43149
195 1 -10.8763 3.51804 0.0318067 -3.47623
196 1 -9.11244 5.5024 43.2375 -3.48204
197 1 -9.06447 3.63279 1.62366 -3.49733
198 1 -10.8611 5.35235 1.75552 -3.53112
199 1 -7.20204 3.64771 -0.00669352 -3.51336
200 1 -5.33543 5.4956 -0.101158 -3.48564
201 1 -5.45567 3.53055 1.87331 -3.48611
202 1 -7.28071 5.40878 1.68249 -3.51523
203 1 -3.56277 3.49778 -0.0311697 -3.49152
204 1 -1.75213 5.35376 -0.114483 -3.54091
205 1 -1.77118 3.57136 1.70392 -3.49215
206 1 -3.66536 5.24113 1.70854 -3.48855
207 1 0.122945 3.57771 43.3665 -3.47821
208 1 1.90676 5.31655 -0.0746983 -3.51813
209 1 1.86976 3.51129 1.68634 -3.5137
210 1 0.034467 5.15716 1.73951 -3.45421
211 1 3.66256 3.46017 43.3831 -3.49996
212 1 5.57166 5.45274 43.4519 -3.45233
213 1 5.38439 3.78217 1.81782 -3.44701
214 1 3.77213 5.4714 1.6038 -3.46726
215 1 7.29753 3.51927 43.6215 -3.52701
216 1 9.13369 5.29618 43.4279 -3.51862
217 1 9.08158 3.58059 1.84758 -3.5006
218 1 7.23708 5.35078 1.82985 -3.48684
219 1 10.9164 3.50964 43.5747 -3.51432
220 1 12.7625 5.33841 0.0897509 -3.52605
221 1 12.6861 3.517 1.85456 -3.48486
222 1 10.7882 5.55753 1.90613 -3.53431
223 1 14.5783 3.69221 43.6082 -3.43316
224 1 16.471 5.30664 -0.0601651 -3.01156
225 1 16.4126 3.63456 1.85485 -3.02071
226 1 14.7723 5.34599 1.80511 -3.3675
227 1 -16.2061 7.05729 1.69721 -2.72602
228 1 -14.5136 7.39756 -0.22965 -3.37421
229 1 -12.6049 8.89033 -0.175168 -3.34674
230 1 -12.6423 7.28235 1.72055 -3.48623
231 1 -14.5972 8.82772 1.76906 -3.07014
232 1 -11.0055 7.21216 43.3406 -3.46625
233 1 -9.11114 9.13169 -0.0499862 -3.50122
234 1 -8.93144 7.253 1.68589 -3.51192
235 1 -10.892 9.01968 1.70407 -3.52082
236 1 -7.25989 7.15003 -0.0857743 -3.48668
237 1 -5.40641 9.00333 43.5145 -3.51892
238 1 -5.31405 7.22457 1.78747 -3.51547
239 1 -7.15968 8.99389 1.85769 -3.50948
240 1 -3.61152 7.26286 -0.00191627 -3.48244
241 1 -1.80777 8.95112 43.487 -3.49021
242 1 -1.94631 7.13769 1.76705 -3.49287
243 1 -3.61447 9.00344 1.79408 -3.47472
244 1 0.0819377 7.2187 0.0152339 -3.54592
245 1 1.8286 9.0919 43.5054 -3.49973
246 1 1.84218 7.28565 1.78056 -3.4751
247 1 -0.161808 9.06345 1.77514 -3.45488
248 1 3.56675 7.14566 43.2821 -3.4991
249 1 5.43662 8.97345 -0.0406073 -3.53732
250 1 5.57597 7.26722 1.74474 -3.51833
251 1 3.67384 9.03032 1.66815 -3.46792
252 1 7.23726 7.11997 43.3749 -3.42981
253 1 8.96697 8.91521 43.4559 -3.50077
254 1 8.90541 7.27333 1.70723 -3.49458
255 1 7.2432 9.2435 1.70423 -3.50408
256 1 10.835 7.18305 0.0736251 -3.50864
257 1 12.663 8.85747 43.4508 -3.48356
258 1 12.7975 7.12176 1.95704 -3.51992
259 1 10.8539 9.02156 1.91663 -3.52696
260 1 14.5365 7.12976 0.1529 -3.35498
261 1 16.3061 7.17516 1.72014 -2.72514
262 1 14.5709 9.06199 1.78107 -3.11319
263 1 -14.436 10.5739 -0.202548 -2.7817
264 1 -12.6325 12.5762 -0.221364 -2.8705
265 1 -12.7485 10.8048 1.73373 -3.35123
266 1 -11.0272 10.8138 -0.112187 -3.47295
267 1 -9.06861 12.6098 -0.0247397 -3.46863
268 1 -9.1062 10.7569 1.82722 -3.49842
269 1 -10.868 12.4892 1.77503 -3.35503
270 1 -7.1724 10.7668 -0.107038 -3.49755
271 1 -5.5345 12.5536 43.3891 -3.52253
272 1 -5.23343 10.8757 1.84826 -3.47549
273 1 -7.32587 12.7241 1.71723 -3.49911
274 1 -3.53596 10.7431 43.5342 -3.49616
275 1 -1.89602 12.5806 43.4398 -3.49989
276 1 -1.9114 10.8257 1.85348 -3.44266
277 1 -3.57271 12.592 1.77792 -3.46916
278 1 -0.109101 10.7323 43.4559 -3.51514
279 1 1.80508 12.5507 43.4722 -3.51988
280 1 1.76208 10.8021 1.8876 -3.50939
281 1 -0.0134861 12.6969 1.80278 -3.52216
282 1 3.66189 10.8567 0.00914527 -3.51845
283 1 5.41346 12.7148 -0.12148 -3.49613
284 1 5.35239 10.9868 1.72748 -3.50416
285 1 3.53873 12.7978 1.79295 -3.52899
286 1 7.21548 10.87 43.3399 -3.54279
287 1 8.99333 12.7361 43.5367 -3.4575
288 1 9.00075 10.9393 1.71098 -3.48774
289 1 7.20976 12.6564 1.73468 -3.5064
290 1 10.8142 10.8314 43.5889 -3.49721
291 1 12.5805 12.6942 43.5854 -2.92743
292 1 12.6413 10.7931 1.77403 -3.31359
293 1 10.8145 12.7081 1.75957 -3.29885
294 1 14.2905 10.8114 0.174547 -2.75297
295 1 -10.9089 14.3565 -0.0906278 -2.71421
296 1 -9.24109 14.4951 1.7983 -3.12642
297 1 -7.42948 14.3188 43.4074 -3.33752
298 1 -5.42938 16.2621 -0.0486145 -2.9956
299 1 -5.42717 14.3965 1.72705 -3.41028
300 1 -7.17905 16.0178 1.79642 -2.76984
301 1 -3.7409 14.4109 43.496 -3.45205
302 1 -2.00706 16.1701 43.5475 -3.16494
303 1 -1.8316 14.4028 1.78655 -3.47747
304 1 -3.84832 16.2929 1.77943 -3.01236
305 1 -0.00646538 14.469 43.4873 -3.48225
306 1 1.76808 16.4008 -0.0175963 -3.09316
307 1 1.65017 14.4234 1.69656 -3.38337
308 1 0.195124 16.3919 1.69506 -3.14821
309 1 3.47694 14.348 43.3225 -3.45255
310 1 5.41799 16.3941 -0.026393 -2.97214
311 1 5.37276 14.4951 1.73797 -3.40725
312 1 3.65535 15.9598 1.68947 -3.03225
313 1 7.20677 14.5538 0.137773 -3.3546
314 1 9.09792 14.4866 1.8207 -3.12397
315 1 7.18275 16.3607 1.69992 -2.72117
316 1 10.901 14.5208 43.5424 -2.74834
317 1 -0.313322 17.8359 42.9702 -2.4722
318 1 -5.39743 -16.276 3.57167 -3.01126
319 1 -7.10525 -16.1539 5.31532 -2.75396
320 1 -1.84647 -16.2237 3.62683 -3.11773
321 1 -3.55719 -16.4201 5.42933 -3.01024
322 1 -0.18106 -17.8355 3.40313 -2.43728
323 1 1.82984 -16.3704 3.59899 -3.15153
324 1 0.0524319 -16.3343 5.2477 -3.15611
325 1 5.64468 -16.3194 3.50084 -2.95929
326 1 3.8688 -16.4438 5.22435 -3.01376
327 1 7.31917 -16.0443 5.57861 -2.70464
328 1 -12.5885 -12.5867 3.77769 -2.87539
329 1 -10.8275 -14.3195 3.83302 -2.75215
330 1 -9.0481 -12.6023 3.61885 -3.5044
331 1 -8.98549 -14.4259 5.54695 -3.14093
332 1 -10.8231 -12.4967 5.55037 -3.32922
333 1 -7.22327 -14.4749 3.69761 -3.29934
334 1 -5.40066 -12.716 3.54637 -3.49385
335 1 -5.26607 -14.4907 5.40573 -3.43412
336 1 -7.21425 -12.6721 5.49364 -3.51195
337 1 -3.71551 -14.4717 3.55753 -3.44821
338 1 -1.90913 -12.7893 3.59671 -3.53098
339 1 -1.79841 -14.5806 5.43624 -3.4774
340 1 -3.7047 -12.7003 5.38531 -3.48108
341 1 -0.0377424 -14.588 3.6765 -3.45578
342 1 1.71813 -12.7449 3.58634 -3.4951
343 1 1.87687 -14.5579 5.37185 -3.48031
344 1 0.0291601 -12.6706 5.32226 -3.50096
345 1 3.61191 -14.4891 3.59204 -3.47525
346 1 5.43226 -12.7355 3.62505 -3.52828
347 1 5.43908 -14.4773 5.42698 -3.48427
348 1 3.64367 -12.6827 5.38441 -3.53347
349 1 7.42265 -14.473 3.68669 -3.40028
350 1 9.04492 -12.5958 3.64763 -3.40708
351 1 8.98011 -14.3564 5.62059 -3.08996
352 1 7.21227 -12.5475 5.60112 -3.51612
353 1 10.5384 -14.3793 3.76597 -2.75472
354 1 12.8699 -12.7018 3.8214 -2.74802
355 1 11.0939 -12.737 5.52544 -3.28609
356 1 -14.2986 -10.8561 3.66303 -2.74146
357 1 -12.7984 -8.91522 3.60073 -3.46436
358 1 -12.6964 -10.7031 5.48288 -3.34243
359 1 -14.5751 -9.09824 5.39008 -3.11422
360 1 -10.9918 -10.8246 3.60587 -3.50453
361 1 -9.09382 -9.13203 3.55402 -3.48378
362 1 -9.01033 -10.7426 5.34378 -3.50856
363 1 -10.9124 -9.01604 5.40034 -3.51374
364 1 -7.1964 -10.9725 3.54586 -3.49902
365 1 -5.38436 -8.97774 3.55895 -3.48334
366 1 -5.43561 -10.8296 5.27956 -3.49674
367 1 -7.23363 -9.04461 5.36085 -3.53247
368 1 -3.62227 -10.9492 3.6189 -3.53325
369 1 -1.77647 -8.92394 3.56998 -3.43888
370 1 -1.76499 -10.8346 5.48701 -3.49427
371 1 -3.73451 -9.07943 5.38136 -3.51666
372 1 -0.146021 -10.8933 3.52052 -3.51629
373 1 1.80046 -8.98798 3.63644 -3.53731
374 1 1.76744 -10.9277 5.3408 -3.5345
375 1 -0.0376268 -9.19445 5.3857 -3.45643
376 1 3.69001 -10.7512 3.60065 -3.51825
377 1 5.5198 -9.14338 3.51681 -3.49931
378 1 5.42652 -10.8331 5.42169 -3.50425
379 1 3.74868 -8.96155 5.39447 -3.48228
380 1 7.23619 -10.9447 3.74002 -3.48697
381 1 9.26306 -9.23239 3.77224 -3.51222
382 1 9.24785 -10.9041 5.50146 -3.49722
383 1 7.3474 -9.13773 5.49428 -3.54164
384 1 11.0729 -10.9497 3.77123 -3.47915
385 1 12.7722 -9.24872 3.6616 -3.43208
386 1 12.8644 -10.8973 5.65812 -3.35551
387 1 11.0174 -9.15157 5.60673 -3.52467
388 1 14.716 -10.6197 3.68963 -2.65011
389 1 14.6855 -9.01062 5.49959 -3.09919
390 1 -16.4183 -5.56013 3.65176 -3.00048
391 1 -16.1534 -7.20582 5.47657 -2.75664
392 1 -14.6226 -7.29066 3.6311 -3.34025
393 1 -12.7769 -5.47495 3.64511 -3.53933
394 1 -12.7313 -7.32608 5.48554 -3.51441
395 1 -14.5894 -5.34044 5.32504 -3.44562
396 1 -10.8223 -7.18804 3.55629 -3.52707
397 1 -8.99566 -5.39295 3.39416 -3.50866
398 1 -8.98338 -7.20881 5.32748 -3.4966
399 1 -10.7975 -5.40536 5.28562 -3.52442
400 1 -7.29954 -7.27336 3.56566 -3.51441
401 1 -5.50383 -5.51587 3.54278 -3.52283
402 1 -5.48067 -7.21113 5.34108 -3.491
403 1 -7.21684 -5.5315 5.41431 -3.44409
404 1 -3.56006 -7.26042 3.60971 -3.48891
405 1 -1.77573 -5.49801 3.55945 -3.49233
406 1 -1.93741 -7.31126 5.48565 -3.5067
407 1 -3.54941 -5.48327 5.38836 -3.49297
408 1 -0.088957 -7.28291 3.69665 -3.503
409 1 1.92211 -5.49151 3.65372 -3.50628
410 1 1.88955 -7.30521 5.45997 -3.47676
411 1 -0.031467 -5.57133 5.47152 -3.52018
412 1 3.62911 -7.24769 3.51282 -3.48676
413 1 5.39449 -5.4599 3.61103 -3.50437
414 1 5.4785 -7.30765 5.44497 -3.52937
415 1 3.65877 -5.34429 5.45636 -3.50032
416 1 7.3702 -7.37318 3.65576 -3.49096
417 1 8.97526 -5.50641 3.57829 -3.49338
418 1 9.08401 -7.24518 5.39959 -3.52046
419 1 7.2959 -5.48041 5.44885 -3.49953
420 1 10.8791 -7.30684 3.59061 -3.52307
421 1 12.6563 -5.46249 3.54637 -3.51663
422 1 12.7294 -7.29296 5.30563 -3.54104
423 1 10.879 -5.50549 5.43261 -3.51915
424 1 14.4915 -7.30736 3.51709 -3.42113
425 1 16.2888 -5.31167 3.60053 -2.9929
426 1 16.2798 -7.09191 5.31867 -2.7411
427 1 14.5319 -5.43495 5.37897 -3.47852
428 1 -16.5662 -1.87652 3.40328 -3.05939
429 1 -16.3528 -3.63378 5.48677 -3.01779
430 1 -14.6811 -3.51616 3.44539 -3.45844
431 1 -12.7196 -1.95173 3.58346 -3.44649
432 1 -12.7153 -3.5104 5.32332 -3.49831
433 1 -14.6456 -1.78897 5.37543 -3.45785
434 1 -10.8764 -3.67244 3.47855 -3.51034
435 1 -9.02908 -1.98248 3.45549 -3.48355
436 1 -8.93968 -3.60569 5.26147 -3.50855
437 1 -10.7359 -1.97751 5.34122 -3.48036
438 1 -7.14924 -3.59075 3.45316 -3.50596
439 1 -5.3382 -1.86317 3.45543 -3.49455
440 1 -5.4199 -3.62918 5.32564 -3.54918
441 1 -7.24136 -1.85229 5.34824 -3.53324
442 1 -3.4966 -3.80144 3.67052 -3.50344
443 1 -1.60425 -1.86292 3.68627 -3.53405
444 1 -1.7825 -3.67878 5.52428 -3.46613
445 1 -3.57529 -1.90822 5.34303 -3.52321
446 1 0.127122 -3.77909 3.64836 -3.51984
447 1 1.88352 -1.9016 3.51918 -3.5277
448 1 1.80986 -3.76214 5.37487 -3.4805
449 1 0.115397 -1.85227 5.46799 -3.4906
450 1 3.77532 -3.56614 3.67811 -3.50253
451 1 5.55867 -1.9109 3.58126 -3.45881
452 1 5.66099 -3.72986 5.3252 -3.47858
453 1 3.59865 -1.81987 5.45926 -3.52934
454 1 7.31113 -3.52356 3.48951 -3.4518
455 1 9.12487 -1.76063 3.60161 -3.47326
456 1 9.11593 -3.68378 5.29545 -3.52187
457 1 7.40215 -1.85063 5.31398 -3.4754
458 1 10.8611 -3.58461 3.57374 -3.53968
459 1 12.7719 -1.88641 3.6692 -3.4795
460 1 12.6343 -3.79693 5.41406 -3.48435
461 1 10.8488 -1.86984 5.34356 -3.51375
462 1 14.2308 -3.686 3.63418 -3.40976
463 1 16.2412 -1.94037 3.58076 -3.11896
464 1 16.3093 -3.56829 5.22603 -3.0152
465 1 14.5527 -1.71269 5.41959 -3.46678
466 1 -17.9361 -0.0277683 3.57909 -2.3834
467 1 -16.4647 1.84169 3.33086 -3.04744
468 1 -16.3804 -0.164298 5.49141 -3.14963
469 1 -14.7563 -0.168651 3.52431 -3.49846
470 1 -12.8652 1.60859 3.51112 -3.44724
471 1 -12.6425 -0.0659915 5.27182 -3.52369
472 1 -14.5763 1.6723 5.26998 -3.48803
473 1 -10.9201 -0.139011 3.54392 -3.5096
474 1 -9.01436 1.92977 3.54181 -3.51952
475 1 -9.17867 -0.078787 5.30292 -3.51612
476 1 -10.9671 1.76707 5.39228 -3.50752
477 1 -7.35545 -0.0349045 3.57419 -3.52202
478 1 -5.57385 1.76748 3.52981 -3.47548
479 1 -5.40309 -0.0325854 5.32359 -3.52148
480 1 -7.31126 1.72692 5.39626 -3.5321
481 1 -3.52627 -0.0537645 3.5558 -3.49461
482 1 -1.71429 1.73351 3.56713 -3.54079
483 1 -1.71055 0.10768 5.51851 -3.49559
484 1 -3.65283 1.73503 5.25528 -3.51381
485 1 0.0926546 -0.0564764 3.64355 -3.50711
486 1 1.82123 1.68355 3.44044 -3.48258
487 1 1.8594 -0.0725566 5.31775 -3.49533
488 1 0.164477 1.85313 5.46211 -3.51018
489 1 3.6813 -0.133809 3.58949 -3.52458
490 1 5.68107 1.74157 3.55516 -3.47847
491 1 5.62293 -0.233466 5.32024 -3.49129
492 1 3.64202 1.76999 5.29919 -3.54095
493 1 7.33143 -0.0527212 3.49513 -3.47581
494 1 8.94716 1.74405 3.48038 -3.49608
495 1 9.1124 -0.000289696 5.41381 -3.52076
496 1 7.24296 1.897 5.45094 -3.47721
497 1 10.9063 -0.0732015 3.58081 -3.53426
498 1 12.735 1.79133 3.46471 -3.50715
499 1 12.7163 -0.0598245 5.34377 -3.52109
500 1 10.9003 1.8384 5.3598 -3.51398
501 1 14.5152 -0.0615778 3.57529 -3.51789
502 1 16.2533 1.69308 3.56998 -3.16632
503 1 16.4638 0.0212841 5.49098 -3.22585
504 1 14.5819 1.75821 5.36003 -3.49462
505 1 17.9588 -0.300754 3.74802 -2.3293
506 1 -16.3334 5.45613 3.63491 -2.96576
507 1 -16.4081 3.46408 5.28278 -3.03339
508 1 -14.4099 3.41636 3.55571 -3.45524
509 1 -12.7352 5.52015 3.45017 -3.52671
510 1 -12.6853 3.50382 5.3084 -3.48063
511 1 -14.5372 5.22854 5.29345 -3.4604
512 1 -10.9562 3.55832 3.53497 -3.51562
513 1 -9.11721 5.32275 3.59899 -3.52439
514 1 -9.08097 3.5923 5.47996 -3.49049
515 1 -10.955 5.31571 5.28842 -3.51701
516 1 -7.29306 3.62571 3.70446 -3.48724
517 1 -5.4375 5.32182 3.61792 -3.5287
518 1 -5.39164 3.55271 5.37946 -3.51561
519 1 -7.21354 5.35259 5.51047 -3.50735
520 1 -3.52209 3.65747 3.55219 -3.51542
521 1 -1.83369 5.43023 3.47837 -3.48512
522 1 -1.72833 3.52145 5.30501 -3.49969
523 1 -3.63367 5.58724 5.45778 -3.46359
524 1 0.0159243 3.66488 3.65226 -3.47309
525 1 1.92146 5.51979 3.38015 -3.51362
526 1 1.74084 3.74553 5.3084 -3.47585
527 1 0.0487488 5.57749 5.36469 -3.48978
528 1 3.69793 3.67778 3.57323 -3.51381
529 1 5.5355 5.47305 3.73492 -3.49935
530 1 5.40737 3.61438 5.38336 -3.50853
531 1 3.53197 5.56343 5.34925 -3.50222
532 1 7.1897 3.58359 3.53712 -3.50048
533 1 8.92439 5.54156 3.59789 -3.50727
534 1 9.10833 3.50291 5.21708 -3.49421
535 1 7.25115 5.37605 5.45673 -3.46554
536 1 10.8188 3.5329 3.51759 -3.48036
537 1 12.7903 5.36301 3.69914 -3.49025
538 1 12.7204 3.5482 5.33531 -3.52343
539 1 10.8121 5.36279 5.19599 -3.52711
540 1 14.6296 3.56074 3.57908 -3.49439
541 1 16.3748 5.56425 3.77132 -2.99417
542 1 16.591 3.48149 5.27426 -2.98226
543 1 14.536 5.4358 5.35493 -3.44337
544 1 -16.6152 7.15323 5.75543 -2.51718
545 1 -14.6468 7.27637 3.60069 -3.31299
546 1 -12.5479 8.97191 3.64482 -3.4522
547 1 -12.8162 7.2678 5.37958 -3.48775
548 1 -14.7556 8.95499 5.46623 -3.03568
549 1 -10.7996 7.22545 3.54245 -3.50976
550 1 -9.05374 9.02494 3.61139 -3.52518
551 1 -8.96251 7.24579 5.41288 -3.47938
552 1 -10.776 8.84991 5.52723 -3.47638
553 1 -7.25989 7.14187 3.71091 -3.51281
554 1 -5.39469 9.07473 3.52668 -3.48379
555 1 -5.35426 7.22335 5.35692 -3.49307
556 1 -7.17372 8.94474 5.4758 -3.51007
557 1 -3.60614 7.14567 3.57712 -3.48722
558 1 -1.69565 9.06758 3.54631 -3.47089
559 1 -1.76531 7.1615 5.46344 -3.47896
560 1 -3.53074 8.89646 5.26513 -3.51656
561 1 -0.0824567 7.16275 3.56954 -3.50019
562 1 1.98955 8.94926 3.51523 -3.49802
563 1 1.85389 7.23073 5.2538 -3.44974
564 1 0.0244775 8.84839 5.46726 -3.48566
565 1 3.83433 7.27136 3.42751 -3.45531
566 1 5.31801 9.113 3.42223 -3.48925
567 1 5.51328 7.29158 5.37316 -3.5054
568 1 3.63325 8.89099 5.36404 -3.50424
569 1 7.27993 7.31564 3.66427 -3.48946
570 1 9.05276 9.03633 3.56397 -3.50652
571 1 8.97895 7.27473 5.44459 -3.53153
572 1 7.22669 9.19554 5.29542 -3.49615
573 1 10.8936 7.35365 3.70891 -3.47465
574 1 12.7827 8.99759 3.62725 -3.46557
575 1 12.6998 7.28186 5.37052 -3.50835
576 1 10.8498 9.17575 5.37248 -3.51239
577 1 14.6329 7.30674 3.58139 -3.36687
578 1 16.3353 7.37148 5.51526 -2.70249
579 1 14.4862 9.08012 5.41753 -3.14235
580 1 -14.3124 10.5533 3.60422 -2.75435
581 1 -12.6998 12.5056 3.58614 -2.8629
582 1 -12.7085 10.9234 5.36351 -3.27458
583 1 -10.8606 10.8861 3.61025 -3.47157
584 1 -9.14391 12.6873 3.54732 -3.42997
585 1 -9.02173 10.7397 5.47864 -3.5341
586 1 -10.8341 12.4922 5.40837 -3.2895
587 1 -7.19939 10.904 3.60931 -3.5296
588 1 -5.40191 12.7048 3.58638 -3.52027
589 1 -5.4112 10.6854 5.40484 -3.52525
590 1 -7.2101 12.5673 5.44527 -3.52539
591 1 -3.54721 10.7276 3.5871 -3.44074
592 1 -1.8602 12.5166 3.58741 -3.50511
593 1 -1.80897 10.7657 5.33285 -3.51037
594 1 -3.56793 12.6901 5.40054 -3.52272
595 1 0.151382 10.859 3.62214 -3.50242
596 1 1.79983 12.7218 3.63425 -3.52022
597 1 1.85533 10.9258 5.38545 -3.5188
598 1 -0.0329083 12.7329 5.31808 -3.51355
599 1 3.64434 11.0222 3.49851 -3.51887
600 1 5.44535 12.8006 3.61006 -3.533
601 1 5.2798 10.8029 5.39466 -3.4958
602 1 3.678 12.7299 5.45504 -3.5259
603 1 7.15326 10.9117 3.61611 -3.53157
604 1 8.95713 12.7482 3.50746 -3.49117
605 1 9.19968 10.9661 5.26087 -3.46952
606 1 7.27388 12.8206 5.41617 -3.50745
607 1 10.7514 10.9563 3.54028 -3.47578
608 1 12.7349 12.6246 3.40754 -2.89312
609 1 12.6243 11.0989 5.26103 -3.35689
610 1 10.8286 13.0416 5.25891 -3.29018
611 1 14.5527 10.8224 3.43022 -2.71543
612 1 -11.0535 14.3179 3.80914 -2.71023
613 1 -8.9974 14.3455 5.21139 -3.09199
614 1 -7.33153 14.4296 3.58675 -3.32112
615 1 -5.46643 16.4382 3.81822 -2.95456
616 1 -5.41118 14.4888 5.36799 -3.47464
617 1 -7.39624 16.2711 5.43341 -2.69219
618 1 -3.70715 14.5479 3.4648 -3.46366
619 1 -1.75084 16.1504 3.40612 -3.14527
620 1 -1.77226 14.4546 5.34683 -3.47481
621 1 -3.51524 16.3605 5.33666 -3.03986
622 1 0.0767443 14.487 3.5011 -3.47136
623 1 1.94921 16.1181 3.46271 -3.15739
624 1 1.66516 14.4619 5.5333 -3.50016
625 1 -0.102532 16.1642 5.31853 -3.24045
626 1 3.63976 14.4848 3.62247 -3.40172
627 1 5.29191 16.3654 3.49157 -3.02791
628 1 5.48136 14.6096 5.27202 -3.41202
629 1 3.56064 16.2087 5.33812 -3.06441
630 1 7.2584 14.7111 3.49386 -3.34153
631 1 8.97969 14.5771 5.32671 -3.13012
632 1 7.05296 16.3338 5.20892 -2.69604
633 1 10.9084 14.4304 3.36173 -2.71428
634 1 -0.0604734 17.8401 3.5196 -2.37847
635 1 -5.39856 -16.3581 7.18685 -3.00307
636 1 -7.32585 -16.0926 9.01769 -2.71869
637 1 -1.99324 -16.1926 7.23266 -3.10584
638 1 -3.69611 -16.2361 9.16862 -3.0333
639 1 0.00669264 -17.9231 7.00322 -2.34247
640 1 2.01234 -16.5385 7.02668 -3.10665
641 1 -0.0107728 -16.3773 8.83475 -3.17983
642 1 5.30556 -16.3652 7.31227 -2.98367
643 1 3.61048 -16.3985 8.97996 -2.98589
644 1 7.13421 -16.0534 9.25529 -2.80019
645 1 -12.7228 -12.5523 7.23539 -2.88945
646 1 -11.0153 -14.3034 7.11371 -2.72293
647 1 -9.04589 -12.6165 7.23011 -3.47431
648 1 -9.10738 -14.3603 9.0324 -3.1364
649 1 -11.012 -12.7084 9.04225 -3.32281
650 1 -7.17386 -14.54 7.1949 -3.35127
651 1 -5.41899 -12.6189 7.14386 -3.49605
652 1 -5.37433 -14.4458 9.00198 -3.48819
653 1 -7.19701 -12.6562 9.07575 -3.52808
654 1 -3.64796 -14.4771 7.20532 -3.45251
655 1 -1.69824 -12.6494 7.1807 -3.54133
656 1 -1.72409 -14.493 9.02046 -3.50406
657 1 -3.6277 -12.4981 8.94209 -3.48843
658 1 0.065392 -14.4455 7.22247 -3.51818
659 1 1.73932 -12.6285 7.22077 -3.46222
660 1 1.82112 -14.7038 8.97991 -3.45581
661 1 0.0871354 -12.6206 9.11354 -3.53168
662 1 3.46792 -14.5461 7.16944 -3.47288
663 1 5.34966 -12.6674 7.26214 -3.51136
664 1 5.32331 -14.3738 9.07515 -3.49483
665 1 3.25907 -12.7033 8.97399 -3.44319
666 1 7.07648 -14.4553 7.28313 -3.30406
667 1 9.05313 -12.7437 7.37783 -3.43333
668 1 9.23706 -14.553 9.22126 -3.1025
669 1 7.33214 -12.793 9.06165 -3.50466
670 1 10.8158 -14.4506 7.21537 -2.7476
671 1 12.7508 -12.6023 7.43928 -2.85719
672 1 10.9652 -12.7809 9.1032 -3.31561
673 1 -14.5218 -10.6579 7.35707 -2.74775
674 1 -12.6646 -8.93986 7.32299 -3.49331
675 1 -12.7852 -10.9245 9.07428 -3.29096
676 1 -14.6045 -8.93674 9.16202 -3.11967
677 1 -10.9645 -10.7506 7.19905 -3.46714
678 1 -9.18656 -9.05257 7.17847 -3.51201
679 1 -9.07035 -10.7406 8.99151 -3.51478
680 1 -10.9027 -9.02469 9.13911 -3.49572
681 1 -7.23982 -10.9196 7.20042 -3.51979
682 1 -5.45761 -8.95125 7.21591 -3.53169
683 1 -5.42748 -10.8009 9.08749 -3.46797
684 1 -7.23027 -8.9994 9.0402 -3.5337
685 1 -3.73141 -10.818 7.24931 -3.48847
686 1 -1.97632 -9.07413 7.36893 -3.51203
687 1 -1.79364 -10.8963 9.04536 -3.51167
688 1 -3.74037 -9.17326 9.11425 -3.47146
689 1 -0.0252295 -10.7239 7.2039 -3.48729
690 1 1.78852 -8.93178 7.14273 -3.50213
691 1 1.84748 -10.7983 8.91341 -3.46674
692 1 -0.0170134 -8.89098 9.11719 -3.51561
693 1 3.63629 -10.7961 7.17126 -3.52423
694 1 5.50209 -9.00696 7.30486 -3.52872
695 1 5.39507 -10.9559 9.07584 -3.52503
696 1 3.61216 -9.10851 9.00299 -3.52888
697 1 7.32777 -10.8514 7.33633 -3.52684
698 1 9.19372 -9.14292 7.28098 -3.50937
699 1 9.22464 -10.9128 9.04527 -3.50809
700 1 7.33572 -9.1298 9.14776 -3.51182
701 1 10.9158 -11.1093 7.27183 -3.42851
702 1 12.7652 -9.01355 7.48217 -3.46508
703 1 12.7723 -10.9626 9.13874 -3.32732
704 1 10.8795 -8.93568 9.08358 -3.41615
705 1 14.6034 -10.7327 7.46437 -2.74598
706 1 14.5918 -8.88244 9.11466 -3.12711
707 1 -16.2387 -5.30991 7.171 -2.96135
708 1 -16.2735 -6.91403 9.01263 -2.75782
709 1 -14.5445 -7.188 7.30935 -3.35362
710 1 -12.5776 -5.32565 7.2791 -3.5067
711 1 -12.5433 -7.1256 9.18257 -3.50451
712 1 -14.4876 -5.33722 9.00907 -3.41905
713 1 -10.7523 -7.10212 7.1705 -3.50988
714 1 -9.0074 -5.43185 7.14281 -3.49845
715 1 -9.15609 -7.09305 9.09515 -3.50799
716 1 -10.7903 -5.29877 8.99558 -3.47022
717 1 -7.25179 -7.1934 7.07532 -3.46011
718 1 -5.39902 -5.51507 7.08174 -3.50518
719 1 -5.37596 -7.16757 9.07159 -3.51563
720 1 -7.26082 -5.3526 9.06583 -3.50148
721 1 -3.67032 -7.28656 7.28591 -3.50982
722 1 -1.88594 -5.3548 7.25197 -3.4582
723 1 -1.95904 -7.2496 9.12708 -3.52438
724 1 -3.64268 -5.45373 9.11391 -3.47556
725 1 -0.147117 -7.23521 7.17393 -3.51225
726 1 1.94977 -5.48906 7.15937 -3.49129
727 1 1.72826 -7.14318 8.99872 -3.50845
728 1 -0.0327135 -5.38638 8.82901 -3.48513
729 1 3.67057 -7.25053 7.21816 -3.49086
730 1 5.48119 -5.5363 7.28791 -3.52876
731 1 5.50572 -7.2424 9.02681 -3.49446
732 1 3.70604 -5.47501 8.9675 -3.48441
733 1 7.41373 -7.26129 7.2675 -3.5106
734 1 9.03021 -5.27067 7.20189 -3.49418
735 1 9.17645 -7.24439 8.86702 -3.47368
736 1 7.44214 -5.4009 9.08446 -3.51647
737 1 11.0289 -7.21351 7.22984 -3.49874
738 1 12.7631 -5.43961 7.27971 -3.42483
739 1 12.6871 -7.21988 9.04883 -3.48259
740 1 10.8119 -5.30982 9.10055 -3.51115
741 1 14.5639 -7.23348 7.12897 -3.36459
742 1 16.3929 -5.27204 7.22802 -3.03388
743 1 16.1963 -7.16252 8.96498 -2.7523