ITEM: TIMESTEP
28000
ITEM: NUMBER OF ATOMS
3804
ITEM: BOX BOUNDS ss ss pp
-1.7880240796039946e+01 1.7953508351256790e+01
-1.7911496907684860e+01 1.8005125343557893e+01
-6.0732000000000008e-01 4.3987320000000004e+01
ITEM: ATOMS id type x y z c_peratom
1 1 -5.41645 -16.2393 -0.560737 -2.96239
2 1 -7.15535 -16.0737 1.39673 -2.76109
3 1 -1.7553 -15.9811 -0.396781 -3.07814
4 1 -3.53348 -16.0487 1.22274 -3.00927
5 1 -0.265646 -17.7118 43.9801 -2.33703
6 1 1.78046 -16.3437 -0.430074 -3.13163
7 1 0.0562773 -16.2003 1.33833 -3.26019
8 1 5.27379 -16.23 44.1816 -2.98115
9 1 3.59712 -16.1554 1.30147 -3.0472
10 1 7.17012 -16.1657 1.17583 -2.75027
11 1 -12.4568 -12.569 -0.605538 -2.87949
12 1 -10.5844 -14.3671 -0.43345 -2.76618
13 1 -8.9886 -12.5203 -0.677353 -3.44799
14 1 -9.01874 -14.4494 1.46544 -3.10244
15 1 -10.7114 -12.6758 1.29781 -3.32461
16 1 -7.38544 -14.3694 -0.583085 -3.3854
17 1 -5.50291 -12.5077 -0.625778 -3.49113
18 1 -5.36747 -14.3492 1.23603 -3.43256
19 1 -7.26822 -12.717 1.35476 -3.50471
20 1 -3.77693 -14.3075 -0.399955 -3.37167
21 1 -1.83019 -12.5932 44.1317 -3.54018
22 1 -1.87678 -14.3157 1.3819 -3.43099
23 1 -3.6018 -12.4147 1.32805 -3.47227
24 1 -0.0331561 -14.3131 44.0782 -3.50604
25 1 1.71934 -12.5675 44.05 -3.49236
26 1 1.78297 -14.3426 1.33231 -3.50209
27 1 -0.00805641 -12.5567 1.29628 -3.49601
28 1 3.48573 -14.4727 44.099 -3.48178
29 1 5.31436 -12.6452 -0.568375 -3.51208
30 1 5.45035 -14.3802 1.40147 -3.46125
31 1 3.68382 -12.5129 1.21345 -3.52308
32 1 7.26597 -14.3729 -0.672329 -3.34795
33 1 9.0126 -12.6548 -0.807881 -3.32484
34 1 8.93012 -14.549 1.08538 -3.04969
35 1 7.21733 -12.6134 1.09809 -3.53427
36 1 10.6219 -14.2858 -0.6901 -2.73896
37 1 12.4775 -12.5135 -0.633476 -2.89494
38 1 10.6963 -12.6132 1.15738 -3.32705
39 1 -14.2436 -10.7421 -0.680581 -2.73879
40 1 -12.6163 -9.09782 -0.46085 -3.3636
41 1 -12.5293 -10.9378 1.23147 -3.31496
42 1 -14.181 -9.02842 1.29914 -3.0987
43 1 -10.8288 -10.843 -0.639206 -3.47829
44 1 -8.94226 -9.0491 -0.689961 -3.47871
45 1 -9.02836 -10.847 1.13048 -3.47449
46 1 -10.6802 -9.15554 1.29638 -3.49883
47 1 -7.16834 -10.7944 -0.523531 -3.48192
48 1 -5.36623 -8.95888 -0.4172 -3.47853
49 1 -5.33135 -10.8295 1.26705 -3.44716
50 1 -7.12974 -8.96779 1.26913 -3.50151
51 1 -3.49388 -10.7517 -0.64901 -3.51861
52 1 -1.66536 -9.01585 43.9997 -3.48357
53 1 -1.6614 -10.7566 1.31471 -3.5311
54 1 -3.53332 -9.01829 1.18321 -3.50801
55 1 0.0823471 -10.7494 44.1044 -3.4589
56 1 1.8123 -9.00141 -0.655839 -3.52964
57 1 1.8218 -10.7985 1.08421 -3.46878
58 1 0.036645 -8.92103 1.31087 -3.51221
59 1 3.66703 -10.7678 -0.709043 -3.52731
60 1 5.35669 -8.97564 -0.709464 -3.49439
61 1 5.50287 -10.7469 1.11683 -3.46436
62 1 3.72219 -9.13021 1.15056 -3.49892
63 1 7.0248 -10.7953 -0.743891 -3.51835
64 1 8.87506 -9.03756 43.7968 -3.52528
65 1 8.92024 -10.7391 1.18555 -3.50179
66 1 7.1918 -8.88033 1.25831 -3.5098
67 1 10.5192 -10.9144 -0.705283 -3.44523
68 1 12.3001 -9.00773 43.9496 -3.48651
69 1 12.3585 -10.8928 1.22086 -3.3012
70 1 10.6242 -8.99243 1.13547 -3.50542
71 1 14.1278 -10.6539 -0.541728 -2.76357
72 1 14.3946 -9.01386 1.18508 -3.06854
73 1 -16.1234 -5.46358 -0.428838 -2.96693
74 1 -16.0633 -7.11278 1.47339 -2.66961
75 1 -14.1889 -7.2066 -0.486205 -3.34443
76 1 -12.3967 -5.24886 -0.576289 -3.51755
77 1 -12.4954 -7.14735 1.39262 -3.492
78 1 -14.0958 -5.20632 1.36262 -3.46653
79 1 -10.6922 -7.31222 44.0237 -3.53349
80 1 -8.86951 -5.36574 -0.64612 -3.49846
81 1 -8.7708 -7.19191 1.27304 -3.48
82 1 -10.602 -5.49666 1.31807 -3.51646
83 1 -7.06627 -7.1646 -0.570692 -3.47904
84 1 -5.22298 -5.44701 43.9805 -3.49615
85 1 -5.23671 -7.14075 1.22502 -3.53186
86 1 -7.0928 -5.29992 1.43368 -3.50347
87 1 -3.54259 -7.18741 -0.620196 -3.517
88 1 -1.76646 -5.29694 44.0969 -3.48955
89 1 -1.81688 -7.14115 1.34351 -3.52892
90 1 -3.36469 -5.25854 1.29287 -3.4179
91 1 0.0349761 -7.20674 43.9949 -3.50269
92 1 1.82056 -5.50987 43.8299 -3.47844
93 1 1.8543 -7.1798 1.00436 -3.45382
94 1 0.0566106 -5.38914 1.2332 -3.5595
95 1 3.68214 -7.25528 43.7472 -3.48752
96 1 5.35631 -5.50586 43.8584 -3.49814
97 1 5.4336 -7.10077 1.17333 -3.51417
98 1 3.50079 -5.43588 1.06674 -3.47688
99 1 7.26944 -7.10596 43.7798 -3.51093
100 1 9.10627 -5.42634 44.0434 -3.41583
101 1 8.93792 -7.13325 1.15024 -3.49484
102 1 7.15335 -5.39964 1.17211 -3.52557
103 1 10.7179 -7.07196 -0.560227 -3.4606
104 1 12.4878 -5.36328 44.0134 -3.46802
105 1 12.4902 -7.20544 1.28145 -3.5184
106 1 10.7847 -5.29448 1.19845 -3.45064
107 1 14.1794 -7.20536 44.0441 -3.36476
108 1 16.3445 -5.15093 44.033 -2.84485
109 1 15.8949 -7.08434 1.3859 -2.73957
110 1 14.2136 -5.39587 1.17599 -3.44695
111 1 -16.1443 -2.00229 -0.571535 -3.1272
112 1 -16.0507 -3.74314 1.27253 -3.01783
113 1 -14.3103 -3.5711 -0.535338 -3.4641
114 1 -12.4518 -1.86836 44.2161 -3.50555
115 1 -12.3259 -3.4693 1.44777 -3.4809
116 1 -14.3247 -1.75675 1.20921 -3.44028
117 1 -10.6264 -3.61921 -0.433048 -3.4852
118 1 -8.88143 -1.79008 -0.624186 -3.46488
119 1 -8.89286 -3.4733 1.334 -3.53448
120 1 -10.6362 -1.66332 1.39948 -3.50437
121 1 -7.18072 -3.54796 -0.588303 -3.5161
122 1 -5.31602 -1.75691 -0.624621 -3.51758
123 1 -5.35686 -3.52519 1.35384 -3.5108
124 1 -7.13496 -1.76007 1.15051 -3.4716
125 1 -3.53781 -3.56903 44.0218 -3.48019
126 1 -1.8721 -1.83089 43.9341 -3.49753
127 1 -1.77728 -3.61513 1.24648 -3.43488
128 1 -3.44111 -1.79115 1.30226 -3.50536
129 1 0.0806862 -3.55966 43.8636 -3.53203
130 1 1.85624 -1.61705 -0.753169 -3.48428
131 1 1.82557 -3.5288 1.17452 -3.53745
132 1 0.0113321 -1.77233 1.23179 -3.52515
133 1 3.56325 -3.6208 -0.725066 -3.52216
134 1 5.26521 -1.79008 -0.650667 -3.4973
135 1 5.17908 -3.56985 1.14427 -3.50253
136 1 3.56912 -1.7257 1.29795 -3.47464
137 1 7.07949 -3.56134 43.9423 -3.50148
138 1 8.91255 -1.81763 -0.66646 -3.52679
139 1 9.04564 -3.56447 1.11353 -3.52271
140 1 6.99664 -1.88861 1.05523 -3.48818
141 1 10.9604 -3.54655 44.0145 -3.50258
142 1 12.6537 -1.76341 -0.699444 -3.51169
143 1 12.4755 -3.56591 1.30564 -3.47353
144 1 10.7406 -1.65449 1.1589 -3.48919
145 1 14.3374 -3.6489 43.8857 -3.50125
146 1 16.1339 -1.83221 -0.431684 -3.16512
147 1 16.0822 -3.73605 1.23769 -2.9899
148 1 14.3147 -1.75585 1.26412 -3.48745
149 1 -17.7247 -0.182109 -0.925834 -2.34955
150 1 -16.0093 1.87984 -0.804566 -3.1342
151 1 -16.1539 -0.00800457 1.16247 -3.21753
152 1 -14.4006 -0.134508 -0.562764 -3.51027
153 1 -12.6057 1.85011 43.984 -3.48423
154 1 -12.6037 0.0549927 1.25264 -3.51654
155 1 -14.3865 1.84065 1.26395 -3.44117
156 1 -10.7118 -0.0318312 -0.663518 -3.48595
157 1 -8.78041 1.86657 -0.659683 -3.48114
158 1 -8.83208 -0.0961965 1.2981 -3.45639
159 1 -10.6645 1.58535 1.28818 -3.52444
160 1 -7.14044 0.022062 -0.529037 -3.50114
161 1 -5.1229 1.69847 43.9316 -3.50788
162 1 -5.21195 -0.0286498 1.31102 -3.50252
163 1 -6.9925 1.86798 1.2596 -3.54038
164 1 -3.5097 -0.058341 -0.64643 -3.4398
165 1 -1.75002 1.91554 44.0604 -3.49922
166 1 -1.67084 -0.0049609 1.28119 -3.4982
167 1 -3.44888 1.66849 1.2221 -3.47784
168 1 -0.0223117 0.141636 44.033 -3.52712
169 1 1.86504 1.90807 43.9956 -3.51626
170 1 1.83609 -0.0199905 1.25747 -3.53347
171 1 0.0217784 1.93255 1.20944 -3.5334
172 1 3.5535 0.148804 43.8752 -3.48528
173 1 5.47693 1.79044 -0.521511 -3.50737
174 1 5.38069 0.0882329 1.20576 -3.53104
175 1 3.56281 1.83141 1.2163 -3.50565
176 1 7.12618 -0.0835271 43.8363 -3.47964
177 1 8.87423 1.6722 -0.592383 -3.51992
178 1 8.9023 -0.10191 1.16762 -3.50497
179 1 7.25803 1.84145 1.32553 -3.45791
180 1 10.8094 -0.0767871 -0.762297 -3.50071
181 1 12.4845 1.79664 43.8898 -3.49694
182 1 12.5178 -0.0542109 1.16534 -3.47971
183 1 10.7971 1.65373 1.08388 -3.51754
184 1 14.3152 0.0470935 43.9351 -3.51274
185 1 15.9965 1.86809 43.8984 -3.09963
186 1 15.8922 0.192928 1.25791 -3.14102
187 1 14.1755 1.77378 1.27462 -3.47568
188 1 17.5703 0.275038 -0.266526 -2.43567
189 1 -16.0857 5.30396 43.9799 -2.99133
190 1 -15.9979 3.54897 1.17538 -3.02444
191 1 -14.2546 3.4966 -0.635191 -3.40375
192 1 -12.3817 5.41053 43.88 -3.51049
193 1 -12.4751 3.60091 1.17368 -3.50149
194 1 -14.2313 5.30954 1.07856 -3.4824
195 1 -10.6175 3.58235 44.145 -3.46168
196 1 -8.90984 5.37744 -0.52489 -3.52202
197 1 -8.9513 3.43122 1.18889 -3.45095
198 1 -10.8088 5.38987 1.22323 -3.49149
199 1 -6.89777 3.68693 44.0336 -3.5014
200 1 -5.31414 5.55806 44.0137 -3.46206
201 1 -5.14914 3.7452 1.13251 -3.50661
202 1 -7.18252 5.35562 1.23722 -3.50255
203 1 -3.49775 3.60471 43.9673 -3.49863
204 1 -1.70405 5.46193 43.9633 -3.50612
205 1 -1.85304 3.69607 1.36714 -3.52721
206 1 -3.41262 5.64879 1.24644 -3.51101
207 1 -0.0840603 3.73313 43.899 -3.5012
208 1 1.87984 5.42027 -0.657564 -3.53124
209 1 1.86419 3.698 1.19109 -3.52867
210 1 0.0124763 5.44981 1.26379 -3.53352
211 1 3.66202 3.63518 -0.665606 -3.54125
212 1 5.41269 5.52796 44.1365 -3.49641
213 1 5.25256 3.63154 1.29569 -3.53631
214 1 3.57547 5.58336 1.20386 -3.46688
215 1 7.05387 3.64503 44.0254 -3.51936
216 1 8.92414 5.37369 44.0604 -3.49931
217 1 8.90882 3.54531 1.21703 -3.47959
218 1 7.15358 5.34794 1.25535 -3.50388
219 1 10.7659 3.52886 43.8597 -3.4622
220 1 12.5196 5.40132 44.0217 -3.54074
221 1 12.4787 3.63025 1.21741 -3.48897
222 1 10.708 5.41363 1.34848 -3.51964
223 1 14.2476 3.53182 44.0173 -3.46121
224 1 15.9972 5.21937 44.0437 -3.0016
225 1 16.1054 3.41531 1.21889 -3.06125
226 1 14.2287 5.27296 1.28092 -3.47471
227 1 -16.0287 7.0149 1.25135 -2.7195
228 1 -14.3254 7.37369 43.8622 -3.31405
229 1 -12.5013 9.12059 43.921 -3.42167
230 1 -12.5549 7.22912 0.960128 -3.50235
231 1 -14.4393 8.99524 1.00731 -3.08404
232 1 -10.663 7.28054 43.7887 -3.50323
233 1 -8.88865 8.99599 43.8936 -3.51135
234 1 -9.04779 7.20371 1.1668 -3.52238
235 1 -10.9046 9.01388 1.16307 -3.48421
236 1 -7.17787 7.1159 44.0658 -3.5008
237 1 -5.40791 8.93981 43.8926 -3.49791
238 1 -5.27069 7.25921 1.17241 -3.45329
239 1 -7.18294 8.94006 1.12005 -3.51591
240 1 -3.46363 7.34886 43.9928 -3.47551
241 1 -1.83454 9.07116 44.0031 -3.46796
242 1 -1.57849 7.31387 1.30317 -3.46367
243 1 -3.70422 8.98777 1.20668 -3.47891
244 1 0.0231103 7.34824 43.9209 -3.52079
245 1 1.83287 9.01548 -0.588478 -3.50954
246 1 1.81908 7.15471 1.14806 -3.49183
247 1 0.034566 8.99978 1.15371 -3.46818
248 1 3.59735 7.17901 -0.659734 -3.4776
249 1 5.43446 9.07774 43.9756 -3.52089
250 1 5.39979 7.28499 1.27462 -3.51132
251 1 3.68613 8.99355 1.28924 -3.48507
252 1 7.24631 7.27614 43.9153 -3.5359
253 1 9.0119 9.07347 -0.722251 -3.46675
254 1 8.92611 7.20049 1.18947 -3.50613
255 1 7.15591 9.12314 1.22738 -3.50483
256 1 10.6085 7.13632 -0.652386 -3.49588
257 1 12.3678 8.89145 43.8729 -3.50238
258 1 12.5158 7.24112 1.19264 -3.50214
259 1 10.643 8.92126 1.06212 -3.48717
260 1 14.3492 7.13231 43.9729 -3.3731
261 1 16.0559 6.9942 1.16311 -2.70592
262 1 14.3665 9.05085 1.20835 -3.07586
263 1 -14.35 10.861 43.7893 -2.71982
264 1 -12.5399 12.5401 43.8311 -2.906
265 1 -12.6424 10.7802 1.10987 -3.2964
266 1 -10.7843 10.7842 43.9621 -3.49396
267 1 -8.9828 12.5831 43.9143 -3.43875
268 1 -8.91488 10.8133 1.06085 -3.52185
269 1 -10.7323 12.6432 1.06137 -3.25593
270 1 -7.0908 10.7971 43.9729 -3.48741
271 1 -5.42605 12.578 -0.732282 -3.47527
272 1 -5.43242 10.7758 1.16419 -3.50226
273 1 -7.24796 12.6393 0.999804 -3.49581
274 1 -3.64892 10.7464 44.0044 -3.52347
275 1 -1.75079 12.8303 44.0099 -3.50728
276 1 -1.79463 10.8984 1.17899 -3.53608
277 1 -3.63183 12.6835 1.10573 -3.54273
278 1 -0.0789333 10.8163 44.0029 -3.52111
279 1 1.85059 12.6626 -0.737211 -3.48577
280 1 1.73801 10.9017 1.23938 -3.52796
281 1 -0.0187427 12.5575 1.25706 -3.51173
282 1 3.53508 10.9171 43.9322 -3.48842
283 1 5.37846 12.5877 44.0498 -3.49503
284 1 5.20847 10.7842 1.39657 -3.50239
285 1 3.42705 12.697 1.19966 -3.44711
286 1 7.14675 10.804 -0.466489 -3.45465
287 1 8.81622 12.8529 44.0874 -3.45205
288 1 8.92475 10.7833 1.24099 -3.49296
289 1 7.032 12.5071 1.34347 -3.47123
290 1 10.6998 10.9663 -0.576675 -3.47827
291 1 12.4934 12.7497 44.0582 -2.85193
292 1 12.4615 10.7298 1.12818 -3.37205
293 1 10.7468 12.6159 1.28006 -3.30936
294 1 14.2531 10.6688 44.0574 -2.7346
295 1 -10.6596 14.2789 44.1063 -2.6796
296 1 -8.97579 14.4227 1.2685 -3.12985
297 1 -7.25721 14.5928 44.0008 -3.32123
298 1 -5.43896 16.4044 -0.646909 -2.9545
299 1 -5.47166 14.4192 0.943036 -3.43199
300 1 -7.07859 16.1956 1.26914 -2.73176
301 1 -3.49225 14.602 -0.731472 -3.41854
302 1 -1.64443 16.2814 -0.373571 -3.14429
303 1 -1.70073 14.4723 1.34335 -3.39236
304 1 -3.57789 16.1292 1.0388 -3.02518
305 1 0.0934851 14.4507 44.0033 -3.5104
306 1 1.8397 16.2583 44.1654 -3.13841
307 1 1.8023 14.3221 1.33326 -3.43062
308 1 0.0853787 16.1393 1.3668 -3.14077
309 1 3.58117 14.4374 -0.615561 -3.48743
310 1 5.30484 16.3667 -0.676852 -2.96973
311 1 5.46806 14.3247 1.17864 -3.45643
312 1 3.59973 16.2573 1.25413 -3.07701
313 1 7.14306 14.6306 -0.628777 -3.3405
314 1 8.82251 14.6734 1.56458 -3.04927
315 1 6.80142 16.4319 1.12972 -2.67246
316 1 10.5898 14.42 44.2983 -2.72434
317 1 0.289783 18.019 44.3924 -2.3717
318 1 -5.31744 -16.0745 3.23006 -3.00976
319 1 -7.09721 -15.9373 4.7971 -2.69816
320 1 -1.84962 -16.3021 3.23694 -3.14427
321 1 -3.49787 -16.0566 4.97825 -3.04299
322 1 0.108677 -17.9045 3.42544 -2.44277
323 1 1.84897 -16.0778 3.19619 -3.16308
324 1 0.0556035 -15.9638 4.84452 -3.19914
325 1 5.49928 -16.2538 3.04236 -2.99359
326 1 3.68023 -16.1025 4.83478 -3.03908
327 1 7.07957 -15.982 4.92138 -2.76587
328 1 -12.3848 -12.5151 3.08483 -2.89142
329 1 -10.8218 -14.3928 3.26055 -2.72128
330 1 -9.10276 -12.508 3.1391 -3.50894
331 1 -9.06779 -14.4238 4.95554 -3.14524
332 1 -10.8515 -12.5264 5.01671 -3.3308
333 1 -7.16047 -14.305 3.142 -3.30965
334 1 -5.33361 -12.6506 3.26123 -3.47447
335 1 -5.42594 -14.3677 5.02239 -3.39665
336 1 -7.2069 -12.5793 5.04229 -3.50778
337 1 -3.49191 -14.429 3.14349 -3.4421
338 1 -1.85918 -12.5285 3.10762 -3.48497
339 1 -1.81176 -14.3225 4.97928 -3.48749
340 1 -3.69575 -12.5482 4.96916 -3.50368
341 1 -0.0233738 -14.3608 3.02772 -3.50712
342 1 1.88195 -12.5062 3.09934 -3.51756
343 1 1.91965 -14.3191 4.91014 -3.4851
344 1 -0.0347737 -12.6082 4.8824 -3.53991
345 1 3.59499 -14.4511 3.10537 -3.42276
346 1 5.44413 -12.5249 2.97948 -3.49081
347 1 5.36615 -14.2244 4.83945 -3.47173
348 1 3.62791 -12.4789 4.91246 -3.52184
349 1 7.32368 -14.3459 2.9415 -3.40074
350 1 8.96374 -12.3624 2.96878 -3.44251
351 1 8.86327 -14.293 5.00213 -3.08514
352 1 6.99415 -12.4179 4.86409 -3.48458
353 1 10.2983 -14.3615 3.01722 -2.7737
354 1 12.2809 -12.5703 2.95407 -2.86445
355 1 10.789 -12.6643 4.78292 -3.23253
356 1 -14.2163 -10.6589 3.06999 -2.71924
357 1 -12.6126 -8.93458 3.24802 -3.42233
358 1 -12.7127 -10.8082 5.07331 -3.32419
359 1 -14.3519 -8.98328 5.12844 -3.12975
360 1 -10.785 -10.699 3.16065 -3.45234
361 1 -8.85158 -9.20239 3.22271 -3.47807
362 1 -8.91336 -10.8747 4.98691 -3.4819
363 1 -10.688 -9.04552 4.97011 -3.52986
364 1 -6.98301 -10.8916 3.15806 -3.48668
365 1 -5.35028 -8.88853 3.10293 -3.53062
366 1 -5.51992 -10.8065 5.03802 -3.48423
367 1 -7.28364 -8.97882 5.04403 -3.48547
368 1 -3.69835 -10.7036 2.98372 -3.45115
369 1 -1.85314 -9.0311 3.20579 -3.49293
370 1 -1.77777 -10.8601 4.75809 -3.45323
371 1 -3.47314 -9.03654 5.00628 -3.49908
372 1 0.227276 -10.7882 3.02032 -3.48677
373 1 1.89104 -9.00565 3.07608 -3.54028
374 1 1.82174 -10.7805 4.95014 -3.49699
375 1 0.0416139 -9.02255 4.94328 -3.51355
376 1 3.68671 -10.7985 2.97082 -3.50228
377 1 5.36129 -8.96623 3.12821 -3.46741
378 1 5.3499 -10.6852 4.89407 -3.48
379 1 3.64022 -8.86882 4.99377 -3.49151
380 1 7.06716 -10.6375 3.00525 -3.47421
381 1 8.95073 -8.89903 2.93585 -3.4948
382 1 9.07746 -10.7178 5.02989 -3.50749
383 1 7.20916 -9.03083 4.8972 -3.52586
384 1 10.6597 -10.6923 3.08174 -3.43034
385 1 12.4202 -8.98526 2.9386 -3.48371
386 1 12.3467 -10.8778 4.84642 -3.34152
387 1 10.6641 -8.91523 4.8299 -3.51567
388 1 14.155 -10.7442 2.80567 -2.72442
389 1 14.3372 -9.11964 4.88705 -3.09466
390 1 -15.8956 -5.24446 3.2249 -3.02247
391 1 -16.079 -7.20674 5.0926 -2.7
392 1 -14.2921 -7.21093 3.14139 -3.35167
393 1 -12.4161 -5.42453 3.16249 -3.51352
394 1 -12.3734 -7.19745 5.05016 -3.51903
395 1 -14.1936 -5.47916 4.90707 -3.44611
396 1 -10.5818 -7.24565 3.18835 -3.54273
397 1 -8.84109 -5.27276 3.21604 -3.52079
398 1 -8.8706 -7.10691 4.97989 -3.4952
399 1 -10.6814 -5.3741 4.96328 -3.5178
400 1 -7.15902 -7.1866 3.14178 -3.51632
401 1 -5.3091 -5.3178 3.14607 -3.46609
402 1 -5.3782 -7.31595 5.06432 -3.51878
403 1 -7.00932 -5.38956 5.09159 -3.50494
404 1 -3.50628 -7.13998 3.24572 -3.49186
405 1 -1.66098 -5.39079 3.1475 -3.52504
406 1 -1.77387 -7.16301 4.94946 -3.49573
407 1 -3.68683 -5.45211 4.95475 -3.4914
408 1 0.102911 -7.24238 3.03287 -3.49094
409 1 1.89207 -5.49626 2.97934 -3.49421
410 1 1.68418 -7.12266 4.88183 -3.4888
411 1 0.0671556 -5.32522 4.85872 -3.48438
412 1 3.74053 -7.21615 3.09913 -3.5016
413 1 5.41104 -5.41158 3.09384 -3.49997
414 1 5.49498 -7.15737 4.95664 -3.51609
415 1 3.62525 -5.43953 5.01354 -3.51627
416 1 7.16199 -7.15323 3.13451 -3.50792
417 1 8.9618 -5.27162 2.94656 -3.53897
418 1 8.85312 -7.18747 4.87267 -3.48263
419 1 7.22719 -5.37691 4.90251 -3.51266
420 1 10.7152 -7.06305 3.05272 -3.51283
421 1 12.4393 -5.38418 3.13922 -3.51301
422 1 12.654 -7.25747 4.85095 -3.49496
423 1 10.688 -5.52285 4.94309 -3.49581
424 1 14.2361 -7.24868 3.07274 -3.32171
425 1 16.151 -5.41514 3.1809 -2.98007
426 1 15.7648 -7.17916 4.93812 -2.76225
427 1 14.2328 -5.3846 4.99732 -3.42213
428 1 -15.8973 -1.89005 3.0034 -3.17125
429 1 -15.9062 -3.59528 4.98644 -3.06104
430 1 -14.0602 -3.50965 3.16696 -3.4568
431 1 -12.4822 -1.67003 3.21259 -3.48383
432 1 -12.4301 -3.55897 5.08777 -3.49885
433 1 -14.1553 -1.77424 5.07635 -3.49235
434 1 -10.6018 -3.46344 3.30424 -3.51538
435 1 -8.76024 -1.7512 3.204 -3.52721
436 1 -8.74129 -3.50883 5.01008 -3.52799
437 1 -10.6879 -1.83908 5.10812 -3.51372
438 1 -6.96599 -3.48245 3.18718 -3.46612
439 1 -5.46281 -1.65669 3.20682 -3.43366
440 1 -5.3406 -3.64954 5.00414 -3.47897
441 1 -6.99456 -1.69408 5.06147 -3.5135
442 1 -3.66446 -3.55945 3.09347 -3.52097
443 1 -1.78445 -1.80989 3.09659 -3.51053
444 1 -1.77253 -3.44229 4.95594 -3.50168
445 1 -3.63317 -1.78925 4.97378 -3.51325
446 1 0.112887 -3.45464 3.0708 -3.49423
447 1 1.90955 -1.83844 3.00068 -3.47982
448 1 1.94766 -3.64675 4.72772 -3.45888
449 1 0.0771899 -1.7596 4.86573 -3.52416
450 1 3.53329 -3.78782 3.05378 -3.44404
451 1 5.25253 -1.85996 3.13866 -3.50281
452 1 5.34634 -3.59293 4.92735 -3.52945
453 1 3.60961 -1.83516 4.94109 -3.49804
454 1 7.06879 -3.59761 2.90997 -3.51375
455 1 8.85388 -1.87247 2.90713 -3.49759
456 1 9.02997 -3.53967 4.80716 -3.53686
457 1 7.13976 -1.75054 4.80313 -3.51293
458 1 10.7384 -3.56153 2.96727 -3.47031
459 1 12.4433 -1.7642 3.11954 -3.51114
460 1 12.3567 -3.68506 4.97479 -3.51925
461 1 10.7236 -1.75276 5.07625 -3.49289
462 1 14.2762 -3.58649 3.0176 -3.50269
463 1 16.2502 -1.96757 2.98973 -3.10187
464 1 16.1222 -3.65407 4.93003 -3.02657
465 1 14.2754 -1.81031 5.06972 -3.4813
466 1 -17.585 -0.0597119 3.08555 -2.51853
467 1 -16.0392 1.73072 3.05543 -3.2202
468 1 -16.1189 -0.155969 5.02689 -3.20603
469 1 -14.19 0.0570808 3.20735 -3.5051
470 1 -12.5494 1.89088 3.10868 -3.53092
471 1 -12.4848 0.122069 5.1185 -3.49646
472 1 -14.4283 1.72157 5.02992 -3.4996
473 1 -10.7311 -0.0276781 3.23739 -3.52326
474 1 -8.8314 1.84589 3.15834 -3.49304
475 1 -8.84146 0.0627657 5.08899 -3.53434
476 1 -10.7001 1.83667 5.04162 -3.52576
477 1 -7.13289 0.0754369 3.10557 -3.47771
478 1 -5.13099 1.90784 3.04538 -3.52016
479 1 -5.26774 0.121582 4.98234 -3.491
480 1 -7.06242 1.80675 4.77262 -3.47357
481 1 -3.644 -0.129757 3.11797 -3.45065
482 1 -1.76261 1.78826 3.04721 -3.49241
483 1 -1.85812 0.00644914 4.92112 -3.53654
484 1 -3.45514 1.90718 5.05059 -3.49377
485 1 -0.0114814 0.156506 3.12321 -3.48805
486 1 1.88066 1.78663 3.12229 -3.52048
487 1 1.88791 0.00802554 4.87459 -3.51092
488 1 -0.0984739 1.85893 4.79105 -3.45628
489 1 3.75545 0.00941871 3.18217 -3.40982
490 1 5.31169 1.74388 3.13565 -3.48766
491 1 5.40594 -0.000977077 4.94096 -3.49761
492 1 3.60486 1.74908 4.87775 -3.4604
493 1 7.20383 -0.0350944 3.02558 -3.52314
494 1 8.80367 1.81338 3.22043 -3.41682
495 1 8.97703 -0.100877 4.88218 -3.48536
496 1 7.29999 1.74804 5.06153 -3.47148
497 1 10.6751 -0.0317287 3.05234 -3.52757
498 1 12.4279 1.69795 3.24525 -3.48347
499 1 12.6503 0.0806948 5.00854 -3.41404
500 1 10.6297 1.72153 4.9707 -3.51107
501 1 14.2454 -0.10145 3.11952 -3.49706
502 1 16.1594 1.85614 3.2148 -3.12322
503 1 16.1383 -0.23664 4.89453 -3.20459
504 1 14.3683 1.67408 4.93096 -3.45417
505 1 17.8 0.0462919 2.59754 -2.33659
506 1 -15.9775 5.37702 3.11901 -2.98246
507 1 -16.1061 3.61086 5.00572 -3.12544
508 1 -14.331 3.66965 3.08708 -3.44446
509 1 -12.5142 5.40034 3.11216 -3.51155
510 1 -12.5407 3.60114 5.10724 -3.47575
511 1 -14.2886 5.30419 4.9069 -3.42978
512 1 -10.681 3.52756 2.99215 -3.50389
513 1 -9.01939 5.32869 3.04658 -3.52624
514 1 -8.89517 3.63944 4.99738 -3.50946
515 1 -10.8674 5.25649 4.99909 -3.49754
516 1 -6.9326 3.57613 3.0542 -3.49694
517 1 -5.30301 5.43105 2.99511 -3.52591
518 1 -5.23505 3.65154 5.02615 -3.51933
519 1 -7.11925 5.31911 4.86085 -3.51502
520 1 -3.42671 3.63472 3.22297 -3.44532
521 1 -1.7102 5.45196 3.17899 -3.52796
522 1 -1.71409 3.59863 4.92668 -3.45976
523 1 -3.53417 5.45243 4.93633 -3.50908
524 1 0.174393 3.57867 3.02136 -3.51487
525 1 1.71449 5.54852 3.18574 -3.50883
526 1 1.87476 3.68626 4.92558 -3.4936
527 1 0.0412178 5.24458 5.02824 -3.45025
528 1 3.58312 3.78585 3.20051 -3.51534
529 1 5.4845 5.45331 3.08946 -3.50327
530 1 5.45324 3.4325 5.06819 -3.47186
531 1 3.8069 5.36844 5.03478 -3.50791
532 1 7.19271 3.5528 3.07569 -3.50142
533 1 8.95147 5.4404 3.0838 -3.52228
534 1 9.02421 3.65771 5.0952 -3.48636
535 1 7.05305 5.43996 4.91822 -3.52239
536 1 10.6557 3.41132 2.90721 -3.49391
537 1 12.5308 5.45245 3.14884 -3.51494
538 1 12.4332 3.57767 4.96217 -3.53583
539 1 10.7029 5.36615 4.95063 -3.49344
540 1 14.2564 3.44161 3.17369 -3.48908
541 1 16.0505 5.26363 3.21742 -2.99146
542 1 16.1363 3.50216 5.07402 -3.01157
543 1 14.2569 5.31194 4.90765 -3.44704
544 1 -15.9167 7.0845 5.0735 -2.75424
545 1 -14.256 7.15926 3.01472 -3.38302
546 1 -12.4805 9.02536 3.01781 -3.42915
547 1 -12.5179 7.19558 4.98375 -3.5094
548 1 -14.2328 8.91788 4.95846 -3.13907
549 1 -10.7228 7.10812 3.07976 -3.48506
550 1 -8.85281 8.83589 3.00103 -3.46192
551 1 -8.98312 7.0787 4.77886 -3.51655
552 1 -10.7438 8.84816 4.94608 -3.46371
553 1 -7.071 7.11986 2.87673 -3.48513
554 1 -5.4455 9.01091 2.96267 -3.49726
555 1 -5.55025 7.2618 4.77927 -3.50029
556 1 -7.36394 8.91518 4.79124 -3.43872
557 1 -3.52814 7.27959 3.16285 -3.53226
558 1 -1.69721 9.12262 3.06427 -3.49895
559 1 -1.60913 7.20484 4.958 -3.51472
560 1 -3.69473 8.92698 4.89497 -3.49369
561 1 0.0622795 7.32226 3.09413 -3.43367
562 1 1.71588 8.96939 3.18157 -3.46934
563 1 1.82569 7.31388 5.00464 -3.51512
564 1 -0.00385754 9.00009 4.97027 -3.47783
565 1 3.64661 7.21226 3.17518 -3.52662
566 1 5.30144 8.91625 3.22112 -3.45387
567 1 5.44055 7.30569 4.97589 -3.47923
568 1 3.61848 9.00362 5.05058 -3.49005
569 1 7.24412 7.28631 3.07845 -3.51753
570 1 9.022 8.96784 3.09244 -3.51681
571 1 8.84655 7.16913 5.00108 -3.53353
572 1 7.21488 9.04433 5.13053 -3.49928
573 1 10.7021 7.12622 3.15289 -3.47745
574 1 12.4495 8.82232 2.94018 -3.43783
575 1 12.5401 7.12321 4.90106 -3.46552
576 1 10.8402 9.02326 4.9133 -3.50673
577 1 14.3932 7.31407 2.90142 -3.32716
578 1 16.041 6.94333 4.90394 -2.71839
579 1 14.2344 8.86113 4.82509 -3.13177
580 1 -14.0843 10.6975 3.12711 -2.7129
581 1 -12.4269 12.4253 2.78946 -2.82093
582 1 -12.3527 10.6592 4.94178 -3.33221
583 1 -10.71 10.8141 2.96327 -3.50157
584 1 -8.93457 12.6002 2.9419 -3.47398
585 1 -9.03792 10.6348 4.79707 -3.4881
586 1 -10.6046 12.488 4.95103 -3.36478
587 1 -7.21692 10.7241 2.88055 -3.51354
588 1 -5.49195 12.5219 2.94212 -3.51401
589 1 -5.59393 10.7064 4.77092 -3.52397
590 1 -7.36485 12.5557 4.79312 -3.52057
591 1 -3.75448 10.8105 3.03362 -3.51071
592 1 -1.81057 12.5894 3.07091 -3.49009
593 1 -1.84133 10.8355 4.75823 -3.49785
594 1 -3.71937 12.5613 4.73494 -3.48582
595 1 0.0335012 10.7432 3.08265 -3.48101
596 1 1.79942 12.6263 3.08916 -3.44374
597 1 1.78468 10.8605 4.81212 -3.45959
598 1 -0.0138692 12.4906 4.82877 -3.47835
599 1 3.54554 10.6635 3.20792 -3.46377
600 1 5.24981 12.5833 3.15617 -3.49189
601 1 5.37687 10.9218 4.85561 -3.497
602 1 3.49359 12.6144 4.86127 -3.49064
603 1 7.27737 10.7953 3.2066 -3.5155
604 1 8.95862 12.6674 3.07428 -3.45353
605 1 9.00247 10.6871 5.05509 -3.4876
606 1 7.38282 12.5256 4.93246 -3.52468
607 1 10.7794 10.7874 2.97071 -3.52287
608 1 12.5117 12.5425 3.01169 -2.8497
609 1 12.5126 11.0135 4.88974 -3.27539
610 1 10.6175 12.6547 4.93747 -3.36222
611 1 14.0925 10.6575 3.00749 -2.78694
612 1 -10.8039 14.2483 3.13586 -2.73334
613 1 -8.99162 14.5606 4.89177 -3.08983
614 1 -7.15189 14.3918 3.00239 -3.38825
615 1 -5.25711 16.2919 3.00593 -2.97383
616 1 -5.39593 14.4041 4.76553 -3.43635
617 1 -6.86058 16.3249 4.90623 -2.67983
618 1 -3.67308 14.3473 2.91 -3.49975
619 1 -1.76956 16.1942 2.82495 -3.10113
620 1 -1.8621 14.2545 4.79965 -3.4932
621 1 -3.53352 16.2201 4.73063 -3.04165
622 1 0.0614307 14.2664 3.06311 -3.47857
623 1 1.87849 16.2672 3.10661 -3.14721
624 1 1.77105 14.4672 4.97411 -3.48868
625 1 -0.0493857 16.2308 4.8211 -3.23364
626 1 3.54223 14.3467 3.10352 -3.45451
627 1 5.34938 16.1041 3.01741 -3.00667
628 1 5.34815 14.3256 4.94365 -3.41923
629 1 3.57124 16.016 4.88724 -3.05321
630 1 7.07131 14.4063 3.01898 -3.29446
631 1 8.98837 14.637 4.81738 -3.09085
632 1 6.88751 16.0949 4.89081 -2.73209
633 1 10.8123 14.2774 3.12562 -2.74479
634 1 0.120425 17.841 2.85539 -2.39097
635 1 -5.25299 -16.3284 6.81513 -2.95672
636 1 -6.83517 -16.1802 8.72029 -2.71747
637 1 -1.48904 -16.1988 6.65921 -3.13994
638 1 -3.46548 -16.312 8.58789 -2.98872
639 1 0.392844 -18.0177 6.02841 -2.30898
640 1 1.86856 -16.2151 6.56651 -3.16507
641 1 0.0733699 -16.2634 8.69398 -3.18335
642 1 5.25928 -16.1487 6.64444 -2.99753
643 1 3.54669 -16.299 8.56055 -2.99064
644 1 7.03579 -16.0099 8.54141 -2.76249
645 1 -12.5356 -12.4393 7.04041 -2.87069
646 1 -10.9227 -14.2067 6.68488 -2.71839
647 1 -8.88813 -12.7075 6.8853 -3.48797
648 1 -9.04177 -14.5921 8.6065 -3.07584
649 1 -10.6433 -12.681 8.70578 -3.346
650 1 -7.25707 -14.5293 6.81536 -3.35207
651 1 -5.43242 -12.6912 6.80332 -3.50611
652 1 -5.17381 -14.5587 8.60021 -3.3999
653 1 -7.02856 -12.691 8.62916 -3.5089
654 1 -3.52172 -14.3788 6.83084 -3.45895
655 1 -1.64829 -12.6215 6.83131 -3.47766
656 1 -1.70354 -14.4759 8.37375 -3.37731
657 1 -3.52367 -12.641 8.68952 -3.52035
658 1 0.115494 -14.3374 6.80763 -3.4476
659 1 1.77176 -12.4652 6.75694 -3.52353
660 1 1.88859 -14.4725 8.61248 -3.48075
661 1 -0.00237668 -12.6655 8.61925 -3.5011
662 1 3.57906 -14.3094 6.7982 -3.47978
663 1 5.38139 -12.6421 6.82126 -3.52685
664 1 5.25129 -14.3358 8.68396 -3.46464
665 1 3.53378 -12.4644 8.717 -3.49537
666 1 7.3019 -14.3246 6.7723 -3.33328
667 1 8.94992 -12.5595 6.84667 -3.43886
668 1 8.86524 -14.3853 8.89116 -3.1134
669 1 7.13498 -12.631 8.76237 -3.51624
670 1 10.3812 -14.4095 6.94823 -2.7154
671 1 12.1929 -12.6059 6.79431 -2.87559
672 1 10.7263 -12.5324 8.6599 -3.32406
673 1 -14.3367 -10.7085 6.99329 -2.71013
674 1 -12.3788 -9.04424 6.94298 -3.47093
675 1 -12.4286 -10.8062 8.73138 -3.30253
676 1 -14.3404 -8.93914 8.68354 -3.12097
677 1 -10.6437 -10.829 6.89684 -3.53024
678 1 -8.91749 -9.01657 6.90844 -3.50747
679 1 -8.90456 -10.8941 8.8141 -3.50787
680 1 -10.7177 -8.95967 8.68814 -3.48816
681 1 -7.10139 -10.7635 7.06513 -3.47192
682 1 -5.32052 -9.12883 6.7674 -3.4968
683 1 -5.31378 -10.8175 8.69605 -3.48744
684 1 -7.15566 -9.01607 8.69457 -3.50027
685 1 -3.60853 -10.9872 6.87848 -3.50393
686 1 -1.75952 -9.05125 6.81384 -3.50163
687 1 -1.81531 -10.8081 8.826 -3.5002
688 1 -3.61793 -9.10313 8.73662 -3.48142
689 1 0.0969396 -10.6194 6.78289 -3.44506
690 1 1.83975 -8.94609 6.61468 -3.47105
691 1 1.71839 -10.6285 8.63045 -3.51817
692 1 -0.0879833 -8.85082 8.60343 -3.47756
693 1 3.55815 -10.7142 6.88189 -3.51507
694 1 5.34033 -8.98449 6.80361 -3.52619
695 1 5.43246 -10.7657 8.62552 -3.50559
696 1 3.58292 -9.00099 8.63981 -3.52845
697 1 7.15607 -10.7915 6.91986 -3.49971
698 1 8.83068 -8.99357 6.80362 -3.50484
699 1 8.86085 -10.6968 8.80705 -3.52879
700 1 7.08018 -8.95157 8.73299 -3.50627
701 1 10.7269 -10.6978 6.94842 -3.45825
702 1 12.592 -9.13762 6.70095 -3.39316
703 1 12.6576 -10.8317 8.70624 -3.31464
704 1 10.6438 -8.93858 8.65686 -3.49704
705 1 14.121 -10.8826 6.70144 -2.66665
706 1 14.4185 -8.98374 8.6896 -3.07085
707 1 -16.0919 -5.42934 6.78015 -2.984
708 1 -15.8558 -7.07307 8.61035 -2.76907
709 1 -14.309 -7.01545 6.73532 -3.28987
710 1 -12.5351 -5.30728 6.85768 -3.51689
711 1 -12.5773 -7.27479 8.56373 -3.51414
712 1 -14.2501 -5.42735 8.65725 -3.39627
713 1 -10.5843 -7.24075 6.73549 -3.48961
714 1 -8.9653 -5.43682 6.93571 -3.4848
715 1 -8.91553 -7.17825 8.64689 -3.50156
716 1 -10.7715 -5.48934 8.73304 -3.53616
717 1 -7.15939 -7.24475 6.82985 -3.52504
718 1 -5.4126 -5.46547 6.97732 -3.49833
719 1 -5.25806 -7.33437 8.59929 -3.52584
720 1 -7.10554 -5.31808 8.77787 -3.49169
721 1 -3.5176 -7.20719 6.74114 -3.51463
722 1 -1.82999 -5.29972 6.71501 -3.52388
723 1 -1.92549 -7.19273 8.65229 -3.50374
724 1 -3.53969 -5.20555 8.68785 -3.49504
725 1 -0.134221 -7.10878 6.74123 -3.52386
726 1 1.73804 -5.33527 6.66531 -3.47688
727 1 1.73733 -7.21323 8.70446 -3.50971
728 1 -0.081246 -5.41063 8.54204 -3.49435
729 1 3.67411 -7.16131 6.74273 -3.48309
730 1 5.30462 -5.35902 6.91365 -3.47402
731 1 5.32285 -7.15186 8.72559 -3.51064
732 1 3.57789 -5.39633 8.65313 -3.52782
733 1 7.19502 -7.142 6.76661 -3.50483
734 1 8.8713 -5.4073 6.80016 -3.49866
735 1 8.99273 -7.11241 8.71637 -3.48021
736 1 7.10551 -5.42306 8.57193 -3.51851
737 1 10.7412 -7.2078 6.78662 -3.53863
738 1 12.334 -5.39327 6.75454 -3.48346
739 1 12.5261 -7.21122 8.72451 -3.51085
740 1 10.6884 -5.46286 8.67344 -3.48843
741 1 14.214 -7.32293 6.71872 -3.33867
742 1 15.9827 -5.46254 6.71482 -2.9979
743 1 15.9261 -7.1086 8.68796 -2.71618
744 1 14.2153 -5.47504 8.73632 -3.39444
745 1 -16.0187 -1.80107 6.91127 -3.04292