ITEM: TIMESTEP
104000
ITEM: NUMBER OF ATOMS
3804
ITEM: BOX BOUNDS ss ss pp
-1.8837924633595776e+01 1.8310675405040939e+01
-1.7208218039377876e+01 1.7011445121669677e+01
-2.2557600000000000e+00 4.5635760000000005e+01
ITEM: ATOMS id type x y z c_peratom
1 1 -6.02104 -13.7803 -1.95044 -2.97667
2 1 -7.57066 -13.7647 -0.0970297 -2.75531
3 1 -2.45057 -14.0611 -1.7099 -3.13613
4 1 -4.53969 -14.0514 -0.0453689 -3.00745
5 1 -0.499479 -15.7262 -1.69359 -2.68082
6 1 1.31974 -15.795 44.2183 -2.90933
7 1 0.181411 -14.9981 0.603195 -3.12012
8 1 6.15258 -15.4628 45.3153 -2.79834
9 1 4.21107 -15.5864 -0.690166 -2.84563
10 1 7.75013 -14.3997 1.2062 -2.59812
11 1 -12.927 -10.1639 -1.81298 -2.82259
12 1 -11.4145 -11.9374 -1.7015 -2.68439
13 1 -9.65763 -10.3399 -1.61554 -3.45307
14 1 -9.44117 -12.2332 0.0318746 -3.12811
15 1 -11.395 -10.4518 0.178489 -3.31565
16 1 -7.85519 -12.0841 -1.93417 -3.31785
17 1 -5.8881 -10.3174 -1.79076 -3.49884
18 1 -5.98705 -12.0913 0.0696194 -3.39502
19 1 -7.69499 -10.3811 -0.0826161 -3.50743
20 1 -4.15999 -12.2133 -1.70296 -3.44712
21 1 -2.38936 -12.2799 44.4833 -3.48369
22 1 -1.98946 -13.64 0.668962 -3.31982
23 1 -3.6187 -11.7031 0.65895 -3.50966
24 1 -0.675592 -14.1061 44.3178 -3.34148
25 1 1.80797 -13.1886 44.7237 -3.47485
26 1 1.8082 -14.9312 -1.53214 -3.19934
27 1 -0.0631459 -13.3069 -1.24773 -3.46854
28 1 3.78913 -15.0598 44.7247 -3.2475
29 1 5.60084 -13.0948 44.7041 -3.41818
30 1 6.23724 -13.7887 -0.798951 -3.23209
31 1 3.69991 -13.2067 -1.37845 -3.50195
32 1 7.9594 -13.8941 45.1626 -3.06864
33 1 9.63174 -12.1224 45.071 -3.17414
34 1 9.56223 -12.6879 1.24522 -2.97825
35 1 8.06852 -12.2413 -0.627759 -3.37146
36 1 11.1037 -12.0324 -0.788411 -2.74503
37 1 13.0358 -10.2517 -0.712865 -2.84203
38 1 10.9419 -10.6058 1.30308 -3.33483
39 1 -14.6509 -8.53873 -1.86538 -2.71833
40 1 -13.0402 -6.59317 -1.56884 -3.46461
41 1 -13.1556 -8.64488 0.173543 -3.34386
42 1 -14.8976 -6.80122 0.0299795 -3.13131
43 1 -11.3521 -8.49544 -1.59537 -3.46738
44 1 -9.4622 -6.68088 -1.63762 -3.47478
45 1 -9.59882 -8.60603 0.302056 -3.51915
46 1 -11.3224 -6.80236 0.259378 -3.51627
47 1 -7.85051 -8.42611 -1.59722 -3.5
48 1 -5.93086 -8.46982 44.5824 -3.47081
49 1 -5.3689 -9.7088 0.730044 -3.49722
50 1 -7.11606 -7.98922 0.892114 -3.49805
51 1 -4.0428 -10.44 44.403 -3.49874
52 1 -1.63421 -9.73576 45.1228 -3.46306
53 1 -1.75483 -11.5396 -1.00093 -3.46068
54 1 -3.50664 -9.87617 -1.11494 -3.50359
55 1 0.0594473 -11.4979 44.907 -3.50303
56 1 1.93573 -9.61714 44.9307 -3.49684
57 1 1.8844 -11.3875 -1.23985 -3.48998
58 1 0.195487 -9.72102 -1.08831 -3.47132
59 1 3.73724 -11.5524 44.7705 -3.47196
60 1 5.38121 -9.55143 44.7414 -3.52308
61 1 5.57939 -11.4975 -1.21361 -3.46468
62 1 3.86403 -9.75786 -1.15821 -3.52579
63 1 7.20577 -11.4199 44.8563 -3.44498
64 1 8.88593 -9.54931 44.8238 -3.45684
65 1 9.65247 -10.1849 -0.824929 -3.36109
66 1 7.24709 -9.67585 -1.2032 -3.49034
67 1 11.2627 -10.2657 45.2051 -3.30136
68 1 13.0814 -8.6285 45.3126 -3.31719
69 1 12.8246 -8.97098 1.39597 -3.31144
70 1 11.2851 -8.49575 -0.51348 -3.43382
71 1 14.9014 -8.4702 -0.716259 -2.66124
72 1 14.7251 -7.14599 1.47156 -3.11655
73 1 -16.6832 -2.78363 -1.55668 -3.0046
74 1 -16.5677 -4.88272 -0.101783 -2.68792
75 1 -14.9565 -4.92202 -1.68532 -3.25278
76 1 -13.1355 -3.15939 -1.51828 -3.53021
77 1 -13.1462 -5.0393 0.318265 -3.48453
78 1 -14.9051 -3.05022 0.126444 -3.42374
79 1 -11.2791 -4.93426 -1.55842 -3.52923
80 1 -9.55117 -4.82005 44.4437 -3.49431
81 1 -9.06023 -6.10417 0.7724 -3.4766
82 1 -10.7209 -4.36546 0.889531 -3.4816
83 1 -7.66732 -6.61944 44.432 -3.52114
84 1 -5.20715 -6.07829 45.0861 -3.52694
85 1 -5.36632 -7.91466 -1.02482 -3.49717
86 1 -7.20173 -6.04215 -0.952049 -3.50236
87 1 -3.30327 -7.99896 44.9397 -3.52422
88 1 -1.50624 -6.11305 45.1544 -3.46479
89 1 -1.51011 -7.96311 -1.05389 -3.45813
90 1 -3.34947 -6.22974 -0.958516 -3.51408
91 1 0.207943 -7.8704 45.01 -3.48011
92 1 2.14756 -5.88173 44.8913 -3.49676
93 1 1.97458 -7.86582 -1.11848 -3.51512
94 1 0.151354 -6.07517 -1.0107 -3.481
95 1 3.76388 -7.67078 44.9415 -3.44019
96 1 5.46624 -5.95718 45.0043 -3.4863
97 1 5.53717 -7.92013 -1.02953 -3.50256
98 1 3.82084 -6.25693 -0.948284 -3.45471
99 1 7.30081 -7.75662 44.9446 -3.45893
100 1 8.92503 -5.85826 44.8819 -3.50013
101 1 8.81928 -7.78669 -1.15579 -3.46318
102 1 7.17593 -6.04722 -0.908862 -3.51028
103 1 10.6695 -7.83801 44.7554 -3.49854
104 1 12.4411 -6.11803 45.0327 -3.48456
105 1 13.111 -6.97233 -0.434528 -3.4069
106 1 10.6392 -6.11847 -0.93274 -3.51189
107 1 14.9006 -6.89667 45.3939 -3.19227
108 1 16.4811 -4.9682 45.5183 -2.79265
109 1 16.3352 -5.16334 1.47934 -2.71703
110 1 14.8607 -5.32117 -0.362654 -3.34654
111 1 -16.5221 0.458419 -1.65742 -3.0285
112 1 -16.7368 -1.0407 0.216838 -2.98375
113 1 -14.7705 -1.25442 -1.52242 -3.45762
114 1 -13.0116 -1.24408 44.4106 -3.50268
115 1 -12.6178 -2.69088 0.974261 -3.51001
116 1 -14.3057 -0.807817 0.956717 -3.51821
117 1 -11.3044 -3.00087 44.5223 -3.51085
118 1 -8.86112 -2.55661 45.24 -3.46875
119 1 -8.89011 -4.3455 -0.918545 -3.45646
120 1 -10.7004 -2.42428 -0.818482 -3.49233
121 1 -7.15252 -4.21104 45.0543 -3.50739
122 1 -5.19076 -2.58534 45.0145 -3.49488
123 1 -5.26881 -4.31635 -0.997649 -3.49331
124 1 -7.09624 -2.64365 -0.834537 -3.47947
125 1 -3.45027 -4.2766 45.207 -3.45891
126 1 -1.66593 -2.39377 45.0551 -3.47995
127 1 -1.57424 -4.24163 -1.12046 -3.48394
128 1 -3.44452 -2.5041 -1.0133 -3.49245
129 1 0.158825 -4.07293 45.0561 -3.48259
130 1 1.99133 -2.49044 44.9815 -3.48948
131 1 1.99297 -4.3601 -0.95903 -3.54423
132 1 0.257688 -2.47058 -0.807978 -3.50774
133 1 3.79046 -4.08754 44.9733 -3.4686
134 1 5.51634 -2.224 45.2577 -3.47985
135 1 5.35168 -4.21585 -0.872784 -3.53517
136 1 3.69877 -2.32997 -0.890983 -3.49109
137 1 7.16623 -4.17555 45.1342 -3.49975
138 1 9.01236 -2.56988 45.1524 -3.4841
139 1 8.98727 -4.29454 -1.07084 -3.44762
140 1 7.127 -2.43092 -0.865119 -3.45793
141 1 10.8207 -4.19377 45.1317 -3.49181
142 1 12.6402 -2.53644 45.28 -3.51576
143 1 12.5228 -4.48204 -0.778072 -3.48666
144 1 10.7552 -2.66336 -0.71945 -3.50853
145 1 14.2811 -4.54884 45.2055 -3.36371
146 1 15.8937 -2.67541 45.2452 -3.21815
147 1 16.6231 -3.34103 -0.0866805 -2.92885
148 1 14.2473 -2.85691 -0.826599 -3.40633
149 1 -18.8894 2.61303 40.0362 -2.64294
150 1 -16.6221 2.16091 44.5111 -3.09025
151 1 -16.1067 1.12796 0.858903 -3.19666
152 1 -14.7711 0.52038 44.4322 -3.47313
153 1 -12.2955 1.05974 45.2121 -3.46861
154 1 -12.5013 -0.669779 -0.841555 -3.47788
155 1 -14.1242 1.13629 -0.928988 -3.51854
156 1 -10.6445 -0.706905 45.4615 -3.44729
157 1 -8.93994 1.16448 45.438 -3.54428
158 1 -8.81945 -0.777936 -0.77038 -3.50066
159 1 -10.6781 1.01308 -0.528365 -3.50423
160 1 -7.13869 -0.813512 45.1076 -3.48073
161 1 -5.25098 1.27437 45.3033 -3.45781
162 1 -5.37999 -0.717156 -1.0105 -3.50268
163 1 -7.00861 1.02641 -0.679315 -3.47085
164 1 -3.4696 -0.702794 45.0987 -3.51223
165 1 -1.65469 1.13735 45.1901 -3.53021
166 1 -1.64125 -0.726586 -0.796496 -3.52608
167 1 -3.35782 1.11932 -0.784912 -3.50344
168 1 0.168218 -0.662672 45.2418 -3.54384
169 1 1.88349 1.12876 45.2815 -3.46662
170 1 1.93083 -0.667664 -0.737818 -3.46586
171 1 0.144044 1.14737 -0.673164 -3.49217
172 1 3.59355 -0.522905 45.2456 -3.47826
173 1 5.6636 1.24439 45.3416 -3.496
174 1 5.51389 -0.742791 -0.686415 -3.46394
175 1 3.65631 1.05984 -0.676308 -3.50177
176 1 7.31239 -0.576197 45.2634 -3.49535
177 1 9.15204 1.11045 45.2854 -3.48383
178 1 8.92459 -0.719467 -0.697085 -3.48905
179 1 7.3927 1.18057 -0.646956 -3.47712
180 1 10.9435 -0.697794 45.2536 -3.51845
181 1 12.666 1.14201 45.4561 -3.49911
182 1 12.6428 -0.775694 -0.681328 -3.53872
183 1 10.8334 0.957794 -0.593936 -3.5166
184 1 14.4314 -0.697115 45.3217 -3.49039
185 1 16.0649 1.10277 -2.44575 -3.18058
186 1 15.8603 -1.12389 -0.491651 -3.26161
187 1 14.5326 0.93013 -0.396239 -3.49907
188 1 17.5625 -0.843714 45.6047 -2.59191
189 1 -15.7829 4.41105 45.129 -3.08877
190 1 -16.0515 2.81887 -0.904445 -3.10276
191 1 -14.0961 2.82704 45.1164 -3.47004
192 1 -12.3648 4.74962 45.3156 -3.49076
193 1 -12.3316 2.86463 -0.771232 -3.46105
194 1 -14.1371 4.50865 -0.735827 -3.50254
195 1 -10.7349 2.92 45.3918 -3.46841
196 1 -8.86057 4.63029 45.5043 -3.49835
197 1 -8.81579 2.97761 -0.603729 -3.51463
198 1 -10.8059 4.76471 -0.563726 -3.50001
199 1 -7.0188 2.99995 45.4042 -3.49151
200 1 -5.2493 4.8128 45.4438 -3.52841
201 1 -5.30195 2.73636 -0.625421 -3.48423
202 1 -7.09406 4.70067 -0.451179 -3.47505
203 1 -3.46354 3.03764 45.4838 -3.4869
204 1 -1.72448 4.78485 45.5243 -3.48088
205 1 -1.54031 2.77309 -0.68359 -3.44445
206 1 -3.45651 4.57868 -0.49343 -3.50236
207 1 0.183453 2.90251 45.3856 -3.50698
208 1 1.98357 4.72603 45.5497 -3.52306
209 1 2.03785 2.95237 -0.505321 -3.50986
210 1 0.169071 4.4781 -0.400691 -3.48425
211 1 3.85678 2.954 45.5607 -3.48277
212 1 5.47444 4.79181 -2.36539 -3.45636
213 1 5.44031 2.7653 -0.544229 -3.46792
214 1 3.88892 4.76458 -0.491421 -3.47693
215 1 7.42638 2.95587 45.5077 -3.53341
216 1 9.28169 4.82762 -2.25522 -3.41131
217 1 9.14467 2.79809 -0.582939 -3.48483
218 1 7.29261 4.57029 -0.342183 -3.53007
219 1 10.8878 2.85647 45.5845 -3.52028
220 1 12.7167 4.73043 -2.2897 -3.54239
221 1 12.7025 2.79356 -0.48254 -3.50293
222 1 10.9704 4.69815 -0.423394 -3.51368
223 1 14.3755 2.80972 -2.28275 -3.36988
224 1 15.9777 4.56796 -2.12809 -3.00205
225 1 16.1098 2.7354 -0.122985 -3.1081
226 1 14.2634 4.60851 -0.307801 -3.37582
227 1 -15.9051 6.45555 -0.734436 -2.85012
228 1 -14.2128 6.38972 45.5083 -3.38873
229 1 -12.4313 8.31782 45.702 -3.49069
230 1 -12.4992 6.48686 -0.449559 -3.47347
231 1 -14.3316 8.32533 -0.401199 -3.12608
232 1 -10.6018 6.45759 45.508 -3.49393
233 1 -8.88809 8.18579 45.5528 -3.50444
234 1 -8.74376 6.48554 -0.466367 -3.49762
235 1 -10.6211 8.16899 -0.362243 -3.50904
236 1 -7.10052 6.38536 45.5449 -3.49655
237 1 -5.23048 8.14696 45.6508 -3.50767
238 1 -5.21728 6.39299 -0.329505 -3.51118
239 1 -6.99673 8.18456 -0.469783 -3.50859
240 1 -3.45556 6.51881 45.585 -3.49278
241 1 -1.53102 8.17883 45.6463 -3.51652
242 1 -1.66925 6.29026 -0.317022 -3.4891
243 1 -3.40196 8.12029 -0.360552 -3.51619
244 1 0.134848 6.30033 45.7359 -3.47028
245 1 1.90145 8.16963 -2.04862 -3.50903
246 1 1.94821 6.33568 -0.236523 -3.52409
247 1 0.044668 8.14875 -0.364041 -3.4851
248 1 3.78407 6.53671 -2.13671 -3.49556
249 1 5.76948 8.1936 -2.12326 -3.45441
250 1 5.65323 6.59116 -0.188857 -3.50551
251 1 3.76236 8.05407 -0.165487 -3.47289
252 1 7.42784 6.30781 -2.1942 -3.44144
253 1 9.15765 8.33637 -2.15507 -3.50791
254 1 9.05464 6.36838 -0.253836 -3.49389
255 1 7.53223 8.22659 -0.448585 -3.41009
256 1 10.8373 6.49778 -2.26181 -3.44795
257 1 12.7667 8.39077 -1.93696 -3.3919
258 1 12.7062 6.39282 -0.277699 -3.47783
259 1 10.9154 8.26355 -0.282467 -3.52321
260 1 14.4722 6.66347 -2.02137 -3.31635
261 1 16.0396 6.13372 0.00855184 -2.72594
262 1 14.5421 8.2016 -0.183092 -3.09967
263 1 -14.8994 8.67061 45.0023 -2.9036
264 1 -13.1699 10.585 45.1043 -2.84426
265 1 -12.5499 10.0612 -0.365465 -3.25221
266 1 -10.6128 10.078 -2.15383 -3.48211
267 1 -8.90224 11.9272 45.8922 -3.22572
268 1 -8.87745 9.92049 -0.411811 -3.50531
269 1 -10.6703 11.9379 -0.186896 -3.20018
270 1 -7.11968 10.0444 -2.2164 -3.53369
271 1 -5.09117 11.6562 -2.12171 -3.48183
272 1 -5.10369 9.83675 -0.419095 -3.49812
273 1 -6.93948 11.7555 -0.318675 -3.52205
274 1 -3.21736 10.0905 -2.13219 -3.49512
275 1 -1.51377 11.8845 -2.01216 -3.52017
276 1 -1.59288 9.8878 -0.105221 -3.46761
277 1 -3.25728 11.6758 -0.184194 -3.50619
278 1 0.161381 10.0455 -2.20066 -3.50737
279 1 2.01968 11.7744 -1.95923 -3.50703
280 1 1.92276 9.82357 -0.243414 -3.4934
281 1 0.230546 11.5522 -0.164657 -3.50529
282 1 3.91863 9.90571 -1.92964 -3.51503
283 1 5.69233 11.8018 -1.89536 -3.5292
284 1 5.63147 9.69533 -0.114732 -3.46596
285 1 3.93981 11.5912 -0.0685265 -3.52385
286 1 7.33554 10.0269 -2.16768 -3.45615
287 1 9.116 11.8142 -2.12942 -3.46669
288 1 9.27972 10.1481 -0.279227 -3.47762
289 1 7.42812 11.7772 -0.0638715 -3.50266
290 1 11.152 10.1459 -2.03596 -3.50158
291 1 12.8376 12.0518 -1.80778 -2.78555
292 1 12.5835 10.0859 -0.0228196 -3.33208
293 1 10.8621 11.8949 -0.0690532 -3.31487
294 1 14.3459 10.1831 -1.80226 -2.74203
295 1 -11.1286 12.419 45.161 -2.69439
296 1 -8.81713 13.5304 -0.369808 -2.93398
297 1 -7.04128 13.5372 -2.29417 -3.20152
298 1 -4.92938 15.3131 -2.11604 -2.78452
299 1 -5.06827 13.4361 -0.238632 -3.42109
300 1 -6.89705 15.1262 -0.1807 -2.65897
301 1 -3.35907 13.5125 -1.98514 -3.41466
302 1 -1.41235 15.0952 -1.96539 -3.16221
303 1 -1.41016 13.6205 0.00718783 -3.4362
304 1 -3.30103 15.1836 -0.176121 -2.99782
305 1 0.380021 13.5367 -1.78237 -3.44002
306 1 2.14652 15.2876 -1.88174 -3.1633
307 1 2.15806 13.4857 -0.0712961 -3.45013
308 1 0.425654 15.342 -0.0641907 -3.22477
309 1 3.81297 13.5365 -1.89482 -3.4365
310 1 5.48277 15.2107 -1.80552 -2.9738
311 1 5.61973 13.607 0.0361139 -3.39009
312 1 3.87314 15.2673 0.0177914 -3.01885
313 1 7.40558 13.6249 -2.00713 -3.37247
314 1 9.08166 13.547 -0.0292556 -3.10788
315 1 7.26362 15.2635 -0.19658 -2.70166
316 1 10.7822 13.6503 -1.90985 -2.74268
317 1 0.343654 16.8588 -2.21819 -2.41062
318 1 -5.88113 -13.8794 2.10435 -2.96202
319 1 -7.59193 -13.911 3.83181 -2.72864
320 1 -1.78631 -14.999 2.70118 -2.84555
321 1 -3.30467 -15.0497 4.6961 -2.7937
322 1 2.38627 -15.8009 0.950184 -2.92646
323 1 4.20278 -15.9853 2.7949 -2.50405
324 1 0.713621 -15.8027 2.93218 -2.68784
325 1 5.87782 -14.2164 3.10793 -3.10589
326 1 4.0554 -14.4658 5.00802 -3.11176
327 1 7.60448 -14.2305 4.91762 -2.75459
328 1 -13.1516 -10.5724 2.11691 -2.82453
329 1 -11.1023 -12.278 1.93153 -2.71988
330 1 -9.5163 -10.4371 1.99752 -3.47273
331 1 -9.52221 -12.3988 3.77987 -3.10454
332 1 -11.4222 -10.5735 3.98645 -3.30788
333 1 -7.69901 -12.1491 1.87642 -3.38784
334 1 -5.35707 -11.4545 2.46922 -3.48001
335 1 -5.35926 -13.3567 4.53141 -3.26886
336 1 -7.02798 -11.7057 4.46644 -3.4287
337 1 -3.71025 -13.3136 2.61213 -3.29405
338 1 -1.67618 -11.7297 2.36784 -3.52929
339 1 -1.70437 -13.2929 4.31297 -3.30801
340 1 -3.61816 -11.5706 4.39226 -3.5003
341 1 0.222603 -13.411 2.54297 -3.4206
342 1 2.00592 -13.325 0.513662 -3.49734
343 1 2.47493 -14.189 2.79098 -3.32008
344 1 0.0541613 -11.7819 4.4195 -3.45503
345 1 4.4231 -14.078 1.13604 -3.34021
346 1 6.17406 -12.2567 1.24099 -3.47608
347 1 5.74338 -12.5149 4.99452 -3.40761
348 1 4.3366 -12.4348 3.12802 -3.43629
349 1 7.81234 -12.4957 3.08032 -3.35294
350 1 9.29787 -10.6724 3.30881 -3.40426
351 1 9.34209 -12.4759 5.21426 -3.08297
352 1 7.50114 -10.9153 5.09275 -3.44849
353 1 11.031 -12.2928 3.15274 -2.74906
354 1 12.81 -10.672 3.17416 -2.85014
355 1 11.1681 -10.9146 5.24516 -3.30142
356 1 -14.8782 -8.72558 1.93961 -2.68607
357 1 -13.3792 -6.79047 2.1127 -3.41222
358 1 -13.1727 -8.72804 3.81799 -3.32137
359 1 -14.9922 -6.88381 3.88957 -3.11448
360 1 -11.4163 -8.77524 2.14362 -3.49435
361 1 -9.00032 -7.93375 2.57763 -3.48108
362 1 -8.98751 -10.02 4.48294 -3.5307
363 1 -10.7451 -8.20318 4.43646 -3.52238
364 1 -7.20406 -9.81399 2.63922 -3.4865
365 1 -5.20977 -8.06544 2.59566 -3.52692
366 1 -5.43578 -9.89993 4.61389 -3.47335
367 1 -7.17909 -8.16965 4.37196 -3.49831
368 1 -3.52447 -9.85415 2.60131 -3.47814
369 1 -1.60173 -9.95539 0.71335 -3.45902
370 1 -1.723 -10.1207 4.4125 -3.49764
371 1 -3.51398 -8.17077 4.52719 -3.52883
372 1 0.201465 -11.7132 0.725795 -3.49878
373 1 1.97983 -9.87771 0.787038 -3.51294
374 1 1.96731 -11.5813 2.63932 -3.48629
375 1 0.106774 -9.83669 2.53195 -3.50351
376 1 3.79957 -11.5665 0.658064 -3.5161
377 1 5.44608 -9.783 0.786772 -3.51255
378 1 6.13717 -10.6844 3.10624 -3.49746
379 1 3.79378 -9.90648 2.62045 -3.51764
380 1 7.91423 -10.4731 1.25567 -3.49877
381 1 9.44634 -8.72177 1.31515 -3.40965
382 1 9.39517 -8.91683 5.19298 -3.54457
383 1 7.7378 -8.78757 3.15935 -3.4789
384 1 11.0194 -8.95945 3.17498 -3.49542
385 1 12.9182 -7.14131 3.40152 -3.39969
386 1 12.9134 -9.06858 5.06426 -3.32018
387 1 11.2817 -7.20614 5.19666 -3.48842
388 1 14.5409 -8.84299 3.29764 -2.72444
389 1 14.746 -7.39969 5.4246 -3.06991
390 1 -16.6725 -3.09592 1.86652 -2.96997
391 1 -16.6634 -4.98772 3.89712 -2.66018
392 1 -15.0098 -5.00916 1.94108 -3.36788
393 1 -12.5272 -4.54931 2.62557 -3.49091
394 1 -12.6443 -6.50029 4.44308 -3.46528
395 1 -14.2973 -4.64105 4.43632 -3.46937
396 1 -10.8413 -6.34169 2.7234 -3.51733
397 1 -8.93074 -4.51941 2.73306 -3.52275
398 1 -8.90624 -6.33571 4.58819 -3.51343
399 1 -10.826 -4.65938 4.60035 -3.51671
400 1 -7.14264 -6.32799 2.68194 -3.49622
401 1 -5.20543 -6.08012 0.798095 -3.52216
402 1 -5.36997 -6.35763 4.52139 -3.53366
403 1 -7.22904 -4.61856 4.53663 -3.46372
404 1 -3.26606 -8.08823 0.718442 -3.49561
405 1 -1.65349 -6.22382 0.926586 -3.48601
406 1 -1.76705 -8.21266 2.69022 -3.47117
407 1 -3.40557 -6.30418 2.75614 -3.48086
408 1 0.149168 -8.02311 0.741893 -3.55082
409 1 1.96532 -6.14804 0.893323 -3.48662
410 1 1.98234 -7.94887 2.76123 -3.5073
411 1 0.00641823 -6.26361 2.71385 -3.51734
412 1 3.55165 -8.01178 0.826406 -3.49901
413 1 5.43327 -6.28016 0.958027 -3.492
414 1 5.41589 -8.00767 2.65734 -3.47756
415 1 3.62561 -6.17861 2.75358 -3.49114
416 1 7.18197 -7.99515 0.95016 -3.4601
417 1 8.91318 -6.14625 0.866 -3.48498
418 1 9.50333 -6.96745 3.34737 -3.49358
419 1 7.10083 -6.28156 2.89042 -3.51465
420 1 11.1803 -7.01205 1.57571 -3.50786
421 1 13.1032 -5.25191 1.50787 -3.50862
422 1 13.0729 -5.47031 5.32523 -3.47074
423 1 11.3165 -5.33503 3.55167 -3.46124
424 1 14.6158 -5.46723 3.39799 -3.28329
425 1 16.0981 -3.63459 3.71957 -3.03072
426 1 16.2245 -5.55938 5.4877 -2.71551
427 1 14.6292 -3.68311 5.69854 -3.38173
428 1 -16.1857 -0.912866 2.78096 -3.20443
429 1 -16.1215 -2.70583 4.47985 -3.09432
430 1 -14.3474 -2.67124 2.72522 -3.51047
431 1 -12.5971 -0.929839 2.87429 -3.50698
432 1 -12.4987 -2.87959 4.64155 -3.50213
433 1 -14.426 -0.968342 4.70529 -3.44864
434 1 -10.7225 -2.7533 2.78239 -3.52506
435 1 -8.9313 -2.67948 0.867177 -3.4774
436 1 -9.1459 -2.89464 4.72042 -3.51348
437 1 -10.8218 -1.09492 4.70734 -3.51002
438 1 -7.04274 -4.23969 1.04482 -3.49695
439 1 -5.19417 -2.64176 0.892515 -3.482
440 1 -5.21408 -4.50854 2.84134 -3.54105
441 1 -7.15395 -2.78855 3.04577 -3.45075
442 1 -3.37228 -4.39431 0.811353 -3.50963
443 1 -1.56801 -2.55155 0.950728 -3.53113
444 1 -1.82888 -4.52033 2.74141 -3.46523
445 1 -3.3818 -2.59629 2.77992 -3.47878
446 1 0.223857 -4.46597 0.874766 -3.49641
447 1 1.95451 -2.65688 0.982454 -3.51083
448 1 1.9101 -4.45007 2.83809 -3.4978
449 1 0.121814 -2.82062 2.84125 -3.52315
450 1 3.70453 -4.41037 1.00324 -3.51791
451 1 5.39496 -2.46432 1.08636 -3.5066
452 1 5.45422 -4.3104 2.90124 -3.42704
453 1 3.71421 -2.67662 2.92417 -3.50293
454 1 7.0675 -4.34926 1.00392 -3.51618
455 1 8.93883 -2.73955 0.919104 -3.48859
456 1 8.98394 -4.7038 2.79248 -3.42946
457 1 7.21704 -2.87123 3.00878 -3.46962
458 1 10.731 -4.61319 1.15713 -3.4596
459 1 12.4215 -2.7347 1.24529 -3.50022
460 1 13.0662 -3.61749 3.6472 -3.52642
461 1 10.5785 -2.83817 2.99144 -3.51825
462 1 14.7201 -3.37692 1.5447 -3.4259
463 1 16.6243 -1.61471 2.09893 -2.99973
464 1 16.3677 -1.88625 5.56895 -2.98266
465 1 14.6126 -1.75374 3.74814 -3.40947
466 1 -17.6953 1.02256 2.90418 -2.54271
467 1 -16.1498 2.81746 2.87791 -3.19088
468 1 -16.175 0.758725 4.72607 -3.20913
469 1 -14.4471 0.832124 2.87986 -3.53864
470 1 -12.6156 0.9577 1.06152 -3.50209
471 1 -12.5738 0.721213 4.74901 -3.49162
472 1 -14.3456 2.58884 4.90317 -3.53362
473 1 -10.7702 -0.770602 1.20294 -3.52072
474 1 -8.84881 0.864988 1.1738 -3.50935
475 1 -8.92982 -0.869504 2.94072 -3.52546
476 1 -10.7976 0.894964 3.05596 -3.49717
477 1 -7.07358 -0.934581 1.02197 -3.51148
478 1 -5.31175 0.981542 1.16834 -3.49451
479 1 -5.40659 -1.02939 2.95464 -3.51321
480 1 -7.03004 0.958534 3.19864 -3.47975
481 1 -3.56024 -0.789625 0.963217 -3.5138
482 1 -1.74779 0.909692 1.23419 -3.48837
483 1 -1.80255 -0.865665 2.93859 -3.44681
484 1 -3.61715 0.71079 3.13752 -3.50285
485 1 0.0672791 -0.646626 1.10173 -3.49641
486 1 1.9942 1.08535 1.41728 -3.46615
487 1 1.86136 -0.907419 3.03668 -3.54471
488 1 -0.00254102 0.782329 3.22462 -3.50229
489 1 3.63402 -0.814231 1.12043 -3.50007
490 1 5.55673 0.974159 1.17604 -3.51212
491 1 5.41878 -0.88981 3.11623 -3.48709
492 1 3.76152 0.894748 3.13889 -3.52227
493 1 7.38206 -0.890933 1.1863 -3.48623
494 1 9.05424 0.878247 1.18968 -3.48427
495 1 8.90761 -0.889484 3.10007 -3.51774
496 1 7.09055 0.910069 3.19372 -3.48587
497 1 10.6675 -0.976647 1.19518 -3.50018
498 1 12.4492 0.662432 1.3459 -3.45778
499 1 12.3248 -1.1795 3.2472 -3.44053
500 1 10.8732 0.733637 3.24072 -3.48078
501 1 14.1698 -1.01071 1.39363 -3.46743
502 1 15.9731 0.83778 1.65621 -3.19925
503 1 16.5909 0.014133 3.962 -2.97597
504 1 14.1114 0.662381 3.30715 -3.53908
505 1 17.4623 0.601094 -0.251088 -2.61266
506 1 -15.9598 4.6774 1.14742 -2.98185
507 1 -16.0371 4.44193 4.87231 -3.08272
508 1 -14.3322 2.79037 1.13753 -3.46257
509 1 -12.5335 4.64841 1.17192 -3.47877
510 1 -12.5038 2.7823 2.85638 -3.43055
511 1 -14.1607 4.36504 3.11328 -3.42816
512 1 -10.667 2.73974 1.22943 -3.50414
513 1 -9.01171 4.58944 1.35524 -3.4996
514 1 -8.9832 2.61018 3.05052 -3.52898
515 1 -10.6888 4.42848 3.19549 -3.50034
516 1 -7.06128 2.76034 1.26612 -3.53813
517 1 -5.17587 4.56067 1.29701 -3.47433
518 1 -5.42842 2.73577 3.26785 -3.46415
519 1 -7.13485 4.42808 3.36771 -3.49678
520 1 -3.54773 2.71307 1.41674 -3.5008
521 1 -1.76241 4.51478 1.32508 -3.50527
522 1 -1.84576 2.6109 3.26456 -3.51494
523 1 -3.57734 4.49153 3.3223 -3.53493
524 1 0.0734713 2.69506 1.43842 -3.5031
525 1 1.67681 4.44723 1.632 -3.46168
526 1 1.80007 2.57875 3.32372 -3.4675
527 1 -0.106023 4.3309 3.37091 -3.49188
528 1 3.76179 2.70035 1.35895 -3.49469
529 1 5.5768 4.63601 1.4342 -3.45235
530 1 5.43474 2.6968 3.40529 -3.44685
531 1 3.56952 4.23171 3.413 -3.49515
532 1 7.22046 2.73131 1.32476 -3.50423
533 1 9.22018 4.42884 1.53814 -3.51937
534 1 9.08523 2.45933 3.30203 -3.53764
535 1 7.23247 4.3318 3.33453 -3.5124
536 1 10.8893 2.60637 1.39246 -3.52035
537 1 12.7097 4.39344 1.58077 -3.53309
538 1 12.5593 2.57594 3.50309 -3.46859
539 1 10.8197 4.38249 3.42464 -3.51054
540 1 14.2154 2.48507 1.46992 -3.4192
541 1 15.7418 4.34497 1.74569 -3.06283
542 1 15.8484 2.59205 3.41582 -3.13169
543 1 14.1219 4.29266 3.6241 -3.37392
544 1 -15.8695 6.27605 3.13381 -2.74381
545 1 -14.2452 6.32075 1.22844 -3.30639
546 1 -12.5719 8.23165 1.41821 -3.43942
547 1 -12.4036 6.4 3.17898 -3.52349
548 1 -14.2165 8.10776 3.29241 -3.12305
549 1 -10.5533 6.42068 1.5003 -3.49173
550 1 -8.72708 8.00728 1.53177 -3.49737
551 1 -8.79571 6.28577 3.29706 -3.53216
552 1 -10.6294 8.13631 3.44542 -3.49936
553 1 -7.01213 6.20354 1.45468 -3.48392
554 1 -5.21113 8.12913 1.60588 -3.52696
555 1 -5.47121 6.3107 3.38212 -3.51417
556 1 -7.12686 8.17696 3.46536 -3.48048
557 1 -3.47015 6.36462 1.51141 -3.50826
558 1 -1.68161 8.05534 1.54058 -3.50068
559 1 -1.64111 6.27726 3.39853 -3.47826
560 1 -3.42609 7.97968 3.61617 -3.50221
561 1 -0.0633558 6.2371 1.58729 -3.46955
562 1 1.8355 8.13349 1.67221 -3.50939
563 1 1.81728 6.11761 3.58143 -3.52225
564 1 0.0835416 8.05489 3.59287 -3.4962
565 1 3.63885 6.31607 1.62671 -3.50505
566 1 5.51431 8.1599 1.674 -3.44779
567 1 5.49152 6.08942 3.37507 -3.49501
568 1 3.74125 7.83236 3.64292 -3.49334
569 1 7.37647 6.23553 1.64099 -3.46367
570 1 9.09051 8.01521 1.74033 -3.48537
571 1 9.03007 6.17196 3.4595 -3.49587
572 1 7.25488 7.82988 3.51879 -3.50427
573 1 10.8338 6.29491 1.47908 -3.50141
574 1 12.5306 8.09873 1.59117 -3.38052
575 1 12.4758 6.13905 3.51951 -3.42792
576 1 10.8483 7.90248 3.49729 -3.51604
577 1 14.2168 6.36256 1.70879 -3.37967
578 1 15.8252 6.07324 3.74852 -2.72806
579 1 14.0954 7.81639 3.7548 -3.10797
580 1 -14.0893 10.0556 1.57894 -2.69322
581 1 -12.3216 11.6797 1.63252 -2.86096
582 1 -12.3356 9.91773 3.38812 -3.32364
583 1 -10.6644 9.82128 1.45661 -3.52385
584 1 -8.76126 11.5812 1.50464 -3.49438
585 1 -8.91919 9.88398 3.37227 -3.48898
586 1 -10.6288 11.6178 3.40164 -3.33592
587 1 -6.95275 9.89187 1.41704 -3.47408
588 1 -5.28179 11.5228 1.69296 -3.49659
589 1 -5.41257 9.82398 3.53594 -3.48106
590 1 -7.06435 11.5595 3.58101 -3.46414
591 1 -3.4305 9.88433 1.67744 -3.52977
592 1 -1.58045 11.5816 1.77686 -3.48127
593 1 -1.65051 9.82433 3.50575 -3.50913
594 1 -3.35085 11.6602 3.6799 -3.49728
595 1 0.16109 9.89479 1.78915 -3.48035
596 1 1.96815 11.653 1.70673 -3.53191
597 1 1.94141 9.72134 3.64832 -3.50366
598 1 0.173736 11.6332 3.6995 -3.51834
599 1 3.79857 9.88188 1.77016 -3.51693
600 1 5.6668 11.6067 1.77274 -3.50334
601 1 5.47578 9.69737 3.70668 -3.53169
602 1 3.6649 11.4297 3.79219 -3.46082
603 1 7.3771 9.83459 1.77854 -3.45396
604 1 8.95824 11.5896 1.84097 -3.43267
605 1 9.00223 9.75179 3.63253 -3.53518
606 1 7.13986 11.5396 3.76386 -3.48598
607 1 10.8845 9.94412 1.69685 -3.48354
608 1 12.484 11.8258 1.97081 -2.79752
609 1 12.4925 9.90661 3.70193 -3.31384
610 1 10.781 11.7865 3.76133 -3.27881
611 1 14.2872 9.54654 1.87646 -2.71211
612 1 -10.5466 13.4667 1.726 -2.67545
613 1 -8.68448 13.3459 3.5933 -3.11238
614 1 -7.10333 13.3356 1.66862 -3.32967
615 1 -5.21842 14.8892 1.76172 -2.98882
616 1 -5.1837 13.2186 3.55489 -3.41213
617 1 -6.85969 14.8925 3.50472 -2.7353
618 1 -3.30171 13.2697 1.72018 -3.47312
619 1 -1.54287 15.1529 1.87938 -3.11715
620 1 -1.48978 13.362 3.71547 -3.4648
621 1 -3.46029 15.0094 3.53655 -3.04089
622 1 0.289026 13.4419 1.79402 -3.51508
623 1 2.19926 14.9784 1.80146 -3.11713
624 1 1.95626 13.2899 3.71561 -3.50797
625 1 0.196596 15.1051 3.77271 -3.19743
626 1 3.88906 13.2893 1.98345 -3.47146
627 1 5.65443 15.2132 1.84491 -2.90982
628 1 5.33134 13.0673 4.10479 -3.31093
629 1 3.92972 15.0453 3.82791 -3.05411
630 1 7.50907 13.5541 1.9449 -3.31651
631 1 8.84922 13.2602 3.95907 -3.10428
632 1 6.86539 14.9 3.85023 -2.78399
633 1 10.4412 13.5382 1.98013 -2.76537
634 1 0.46062 16.6727 1.96548 -2.3654
635 1 -5.07099 -15.0915 6.34255 -2.77614
636 1 -6.82776 -15.3807 8.25952 -2.49534
637 1 -1.32108 -14.5274 6.55088 -3.04735
638 1 -3.0912 -14.3248 8.45623 -3.06352
639 1 0.691656 -14.3124 4.94952 -3.15018
640 1 2.1564 -14.3211 6.92502 -3.00788
641 1 0.280678 -14.5543 8.61518 -3.12508
642 1 5.78165 -14.4113 6.68585 -2.9923
643 1 4.03779 -14.5137 8.62262 -3.05234
644 1 7.23986 -14.5476 8.90577 -2.69234
645 1 -13.0762 -10.6555 5.71243 -2.85459
646 1 -11.0501 -12.3125 5.68 -2.70093
647 1 -8.78176 -11.9393 6.26388 -3.3243
648 1 -8.64307 -13.6759 8.04155 -2.93103
649 1 -10.5195 -12.041 8.12212 -3.23673
650 1 -6.93549 -13.5244 6.31185 -3.20311
651 1 -5.28589 -11.6463 6.37635 -3.46323
652 1 -5.26262 -13.5625 8.1703 -3.27966
653 1 -7.30898 -11.8778 8.28723 -3.43255
654 1 -3.53112 -13.2716 6.29547 -3.26674
655 1 -1.74413 -11.8077 6.27065 -3.46302
656 1 -1.17313 -12.5443 8.67988 -3.45536
657 1 -3.49945 -11.8833 8.32244 -3.40502
658 1 0.576373 -12.5229 6.80803 -3.44698
659 1 2.60174 -12.3731 4.90696 -3.48674
660 1 2.26706 -12.6531 8.64752 -3.43819
661 1 0.598445 -10.8894 8.75613 -3.47043
662 1 4.05167 -12.6367 6.84154 -3.44918
663 1 5.80739 -10.927 7.07815 -3.50548
664 1 5.75836 -12.7893 8.82722 -3.4072
665 1 4.08191 -10.9385 8.90556 -3.48917
666 1 7.56431 -12.7121 6.9588 -3.3819
667 1 9.37257 -10.9628 7.05517 -3.39634
668 1 9.16998 -12.8714 8.99337 -3.09204
669 1 7.61551 -10.982 8.90635 -3.48197
670 1 11.1418 -12.6203 7.21246 -2.67576
671 1 12.9971 -10.8833 7.09018 -2.81934
672 1 11.041 -10.9554 9.04128 -3.35784
673 1 -14.942 -8.80165 5.58448 -2.71332
674 1 -12.4759 -8.31316 6.2814 -3.48903
675 1 -12.4917 -10.1644 8.14563 -3.28797
676 1 -14.3617 -8.3809 8.10671 -3.09896
677 1 -10.6181 -10.1875 6.28209 -3.38642
678 1 -8.94581 -8.20294 6.28603 -3.5196
679 1 -9.04239 -10.0222 8.31803 -3.49609
680 1 -10.7195 -8.32897 8.19476 -3.50879
681 1 -7.27991 -10.0182 6.44458 -3.52824
682 1 -5.52176 -8.22052 6.36019 -3.49754
683 1 -5.39209 -9.97681 8.42217 -3.51694
684 1 -7.17411 -8.18067 8.23729 -3.49312
685 1 -3.64484 -10.0247 6.51552 -3.48958
686 1 -1.74088 -8.28542 6.29975 -3.52365
687 1 -1.82782 -10.1099 8.29473 -3.4703
688 1 -3.56466 -8.44714 8.43126 -3.40391
689 1 0.0976921 -9.99095 6.22892 -3.50352
690 1 1.92832 -9.87614 4.39866 -3.50636
691 1 2.41354 -10.8482 6.86873 -3.51845
692 1 0.0941031 -8.38705 8.18883 -3.46108
693 1 4.3361 -10.5857 5.10569 -3.48414
694 1 6.14004 -8.94977 5.06185 -3.48259
695 1 5.88319 -9.18186 8.95646 -3.46406
696 1 4.17942 -9.08063 7.07525 -3.52625
697 1 7.64849 -9.20222 7.13254 -3.52891
698 1 9.52597 -7.35611 7.12227 -3.49893
699 1 9.25091 -9.23161 9.0415 -3.49895
700 1 7.58566 -7.33528 8.92109 -3.50023
701 1 11.034 -9.23144 7.11247 -3.46314
702 1 12.8325 -7.54783 7.16699 -3.41807
703 1 12.9343 -9.29543 9.03682 -3.33126
704 1 11.0673 -7.47873 9.14727 -3.50063
705 1 14.6422 -9.17373 7.11365 -2.68811
706 1 14.6659 -7.6262 9.30103 -3.05876
707 1 -16.0639 -4.9203 6.27166 -2.98233
708 1 -15.9843 -6.61253 8.24024 -2.75991
709 1 -14.2945 -6.6636 6.35346 -3.2896
710 1 -12.5668 -4.84718 6.36932 -3.52246
711 1 -12.6588 -6.6636 8.10856 -3.46702
712 1 -14.3524 -4.76315 8.26769 -3.47633
713 1 -10.7775 -6.53927 6.46528 -3.49862
714 1 -9.15131 -4.62572 6.51447 -3.49626
715 1 -8.90361 -6.40327 8.20384 -3.48491
716 1 -10.9638 -4.82512 8.30889 -3.51711
717 1 -7.21623 -6.42321 6.44841 -3.50162
718 1 -5.34083 -4.74008 6.49321 -3.52599
719 1 -5.29115 -6.6292 8.31672 -3.52524
720 1 -7.1428 -4.74683 8.31765 -3.48964
721 1 -3.6364 -6.4992 6.44989 -3.51863
722 1 -1.7708 -6.41169 4.63701 -3.46533
723 1 -1.82706 -6.63809 8.42535 -3.51271
724 1 -3.50117 -4.74989 8.35992 -3.52193
725 1 0.0278355 -8.20367 4.29566 -3.4726
726 1 2.01438 -6.27058 4.71979 -3.48171
727 1 1.78645 -8.30515 6.37266 -3.46612
728 1 0.129045 -6.59301 6.53463 -3.47399
729 1 3.7366 -8.18236 4.66839 -3.51837
730 1 5.35575 -6.28687 4.7315 -3.47701
731 1 5.96702 -7.22481 7.08489 -3.51593
732 1 3.76089 -6.42056 6.50862 -3.44797
733 1 7.73626 -7.07764 5.25029 -3.48925
734 1 9.61613 -5.36655 5.28232 -3.50393
735 1 9.37822 -5.72211 9.11788 -3.45896
736 1 7.87305 -5.51237 7.29019 -3.47648
737 1 11.2894 -5.63396 7.39316 -3.54158
738 1 13.0208 -3.73859 7.66541 -3.44974
739 1 12.7727 -5.81249 9.4674 -3.47238
740 1 11.1454 -3.9396 9.45425 -3.51338