ITEM: TIMESTEP
42000
ITEM: NUMBER OF ATOMS
3804
ITEM: BOX BOUNDS ss ss pp
-1.7883478918475959e+01 1.7806082888501326e+01
-1.7726959981634938e+01 1.7882941798948266e+01
-9.1098000000000001e-01 4.4290980000000005e+01
ITEM: ATOMS id type x y z c_peratom
1 1 -5.29563 -15.9751 -0.905547 -2.9919
2 1 -7.01729 -16.0724 1.03782 -2.6464
3 1 -1.85706 -16.2783 -0.810734 -3.0299
4 1 -3.34627 -16.1279 1.08046 -3.02137
5 1 0.0456428 -17.7003 43.9805 -2.30064
6 1 1.79131 -15.9928 44.387 -3.13818
7 1 -0.254832 -16.1529 0.94141 -3.21907
8 1 5.29725 -15.8873 44.2741 -3.00555
9 1 3.6106 -16.0592 0.950846 -3.02731
10 1 7.01639 -16.1404 1.09485 -2.6464
11 1 -12.367 -12.3923 44.3122 -2.84173
12 1 -10.513 -14.0092 44.4827 -2.73353
13 1 -8.86577 -12.4309 -1.08062 -3.39247
14 1 -8.69201 -14.1078 0.926386 -3.11809
15 1 -10.6401 -12.2656 1.11896 -3.31341
16 1 -7.22967 -14.348 -0.94446 -3.33641
17 1 -5.37203 -12.6222 44.3929 -3.51663
18 1 -5.23329 -14.3238 1.03398 -3.45712
19 1 -7.09338 -12.3269 0.957513 -3.42562
20 1 -3.5582 -14.2808 44.352 -3.4748
21 1 -1.7946 -12.3943 -0.853065 -3.46678
22 1 -1.80712 -14.2186 1.10776 -3.4863
23 1 -3.63604 -12.5387 1.08545 -3.49396
24 1 0.0179736 -14.2143 44.458 -3.50872
25 1 1.77435 -12.3996 44.4465 -3.50622
26 1 1.74671 -14.332 1.09988 -3.45451
27 1 0.0347133 -12.4603 1.02296 -3.49463
28 1 3.49262 -14.202 44.4068 -3.47121
29 1 5.33572 -12.4429 -0.868039 -3.4983
30 1 5.38205 -14.1754 0.980265 -3.47482
31 1 3.56388 -12.3628 1.1716 -3.49171
32 1 7.16153 -14.1561 44.3621 -3.35994
33 1 9.07907 -12.4262 -0.994725 -3.46727
34 1 8.98038 -14.3624 0.904555 -3.11484
35 1 7.30711 -12.4923 0.989452 -3.50415
36 1 10.7944 -14.2293 44.1852 -2.67251
37 1 12.5106 -12.3266 44.2028 -2.87607
38 1 10.7392 -12.5957 1.05138 -3.32205
39 1 -14.2175 -10.5606 44.1953 -2.69685
40 1 -12.4169 -8.81742 44.3219 -3.47661
41 1 -12.4455 -10.6308 1.08784 -3.32771
42 1 -14.1931 -8.94694 0.927752 -3.10194
43 1 -10.7098 -10.6979 -0.942611 -3.49118
44 1 -8.94318 -8.93698 -0.943881 -3.5079
45 1 -8.77175 -10.6868 0.866536 -3.46587
46 1 -10.5567 -8.99795 1.04554 -3.51628
47 1 -7.03587 -10.7049 44.1957 -3.50324
48 1 -5.16254 -8.97132 44.3629 -3.5151
49 1 -5.27971 -10.649 1.01939 -3.5001
50 1 -7.03394 -8.97958 0.977429 -3.51007
51 1 -3.56466 -10.8942 44.4058 -3.46788
52 1 -1.84703 -8.93981 -0.889104 -3.50607
53 1 -1.71093 -10.7719 1.02715 -3.48779
54 1 -3.41588 -8.91029 0.981787 -3.50892
55 1 -0.0777802 -10.6554 -0.945964 -3.52381
56 1 1.80467 -8.86105 44.323 -3.44026
57 1 1.75802 -10.6749 1.04523 -3.50946
58 1 -0.14484 -8.95868 0.850411 -3.5001
59 1 3.42749 -10.5821 44.187 -3.47908
60 1 5.44601 -9.00884 -0.959122 -3.49051
61 1 5.33203 -10.7104 0.808661 -3.45689
62 1 3.58837 -8.97703 0.928312 -3.52924
63 1 7.3091 -10.6803 -0.935777 -3.50863
64 1 9.0438 -8.85857 -0.908029 -3.50569
65 1 9.05551 -10.7268 0.892351 -3.5107
66 1 7.22297 -8.92513 1.10565 -3.4995
67 1 10.724 -10.5849 -0.976874 -3.4964
68 1 12.566 -8.81422 44.3361 -3.43374
69 1 12.4669 -10.778 1.01844 -3.35276
70 1 10.8151 -8.90254 1.04736 -3.47321
71 1 14.2551 -10.5189 -0.924149 -2.73388
72 1 14.2424 -9.09614 1.1196 -3.0787
73 1 -15.9771 -5.49194 44.4759 -2.91528
74 1 -15.9106 -7.15904 1.05466 -2.75019
75 1 -14.1921 -7.07794 44.2417 -3.34811
76 1 -12.4592 -5.38656 -0.896749 -3.49461
77 1 -12.6061 -7.11762 1.06584 -3.50657
78 1 -14.3253 -5.28699 0.974617 -3.44767
79 1 -10.626 -7.15207 44.3005 -3.49598
80 1 -8.79528 -5.33525 -0.811443 -3.4985
81 1 -8.79964 -7.18432 0.957857 -3.53788
82 1 -10.7319 -5.48944 0.960892 -3.50704
83 1 -6.96001 -7.18788 44.3317 -3.50351
84 1 -5.35476 -5.39659 44.5189 -3.48923
85 1 -5.35595 -7.0916 1.05766 -3.5187
86 1 -7.08031 -5.28393 1.21726 -3.46832
87 1 -3.54792 -7.12146 -0.932338 -3.53321
88 1 -1.70275 -5.32888 -0.955228 -3.41253
89 1 -1.74026 -7.10649 0.859453 -3.47784
90 1 -3.5096 -5.44339 1.07945 -3.47671
91 1 0.0840749 -7.16276 44.3575 -3.4721
92 1 1.72524 -5.33649 -1.13405 -3.48606
93 1 1.75554 -7.18214 0.956656 -3.46241
94 1 0.0883695 -5.55351 0.93906 -3.45368
95 1 3.50616 -7.20708 -1.04363 -3.46279
96 1 5.32289 -5.43645 -0.965684 -3.49635
97 1 5.33265 -7.11354 1.01063 -3.49859
98 1 3.52489 -5.42956 0.847103 -3.4965
99 1 7.01814 -7.16902 44.4053 -3.47585
100 1 9.03548 -5.39533 -0.973496 -3.52057
101 1 9.04609 -7.13713 0.9925 -3.48483
102 1 7.22703 -5.45525 0.960162 -3.49054
103 1 10.7169 -7.17558 -0.963148 -3.42575
104 1 12.496 -5.57204 -0.807024 -3.50244
105 1 12.4313 -7.26513 1.09692 -3.4834
106 1 10.8374 -5.37389 0.98841 -3.50294
107 1 14.3587 -7.22918 -0.769385 -3.35708
108 1 16.0764 -5.26271 44.4367 -2.97314
109 1 15.8428 -7.23848 1.24914 -2.71028
110 1 14.2569 -5.39781 1.07958 -3.47449
111 1 -15.9561 -1.90388 44.1642 -3.13102
112 1 -16.315 -3.68887 0.964291 -2.93887
113 1 -14.2595 -3.70611 44.1828 -3.43436
114 1 -12.3841 -1.93973 44.3078 -3.52835
115 1 -12.4491 -3.58249 0.98421 -3.48839
116 1 -14.3374 -2.10235 0.767333 -3.43498
117 1 -10.6606 -3.73735 -0.884914 -3.47542
118 1 -8.93659 -1.90692 44.4434 -3.52145
119 1 -9.10355 -3.60106 1.15132 -3.51538
120 1 -10.771 -1.76898 1.03103 -3.51387
121 1 -7.13408 -3.63827 -0.80364 -3.48734
122 1 -5.25387 -2.06222 -0.810286 -3.46897
123 1 -5.36475 -3.68629 1.07744 -3.47726
124 1 -7.28563 -1.97328 1.22454 -3.49988
125 1 -3.46658 -3.68033 44.443 -3.47468
126 1 -1.92582 -1.75402 44.2442 -3.50434
127 1 -1.79722 -3.66499 0.938589 -3.48349
128 1 -3.51949 -1.79203 1.06097 -3.50391
129 1 -0.214088 -3.62867 -0.940015 -3.4313
130 1 1.77643 -1.90453 -0.89599 -3.52282
131 1 1.78575 -3.63748 0.822671 -3.50305
132 1 -0.0349663 -1.7725 0.921938 -3.52484
133 1 3.50471 -3.67942 -0.9537 -3.47895
134 1 5.39449 -1.9648 -0.881051 -3.50336
135 1 5.18827 -3.48986 1.05685 -3.49612
136 1 3.5841 -1.64751 0.937719 -3.48488
137 1 7.21364 -3.71602 -0.906978 -3.50055
138 1 9.02328 -1.78899 -0.857391 -3.49994
139 1 8.95011 -3.71238 1.0826 -3.488
140 1 7.27224 -1.91575 0.955001 -3.51828
141 1 10.8399 -3.61619 -0.926808 -3.52746
142 1 12.5639 -1.8598 -0.747074 -3.49543
143 1 12.546 -3.56803 1.04623 -3.48038
144 1 10.7266 -1.79635 1.01367 -3.52715
145 1 14.2304 -3.63138 44.5568 -3.43932
146 1 15.963 -1.89185 -0.784136 -3.11235
147 1 16.1626 -3.52183 1.06964 -3.02231
148 1 14.2928 -1.65506 1.06706 -3.52329
149 1 -17.6604 -0.106733 -0.667822 -2.25727
150 1 -15.906 1.7413 44.1695 -3.16519
151 1 -15.8369 -0.0667198 0.878611 -3.22071
152 1 -14.2453 -0.0553243 -1.0511 -3.4985
153 1 -12.5159 1.74886 44.1185 -3.49906
154 1 -12.7212 0.0504076 0.986832 -3.50108
155 1 -14.2487 1.7955 0.880404 -3.42192
156 1 -10.7396 0.0464545 -0.868692 -3.49884
157 1 -8.68997 1.82815 -0.981551 -3.52039
158 1 -8.84501 -0.108709 1.02789 -3.50054
159 1 -10.7354 1.61351 0.978245 -3.46028
160 1 -7.07944 -0.243703 -0.804659 -3.42763
161 1 -5.55194 1.95337 -1.08743 -3.50177
162 1 -5.42488 -0.110447 0.840152 -3.4514
163 1 -7.08335 1.81808 0.997593 -3.47524
164 1 -3.59575 -0.0286131 44.3462 -3.4949
165 1 -1.79083 1.72379 44.1334 -3.51134
166 1 -1.78133 -0.0184168 0.96706 -3.52576
167 1 -3.6683 1.74276 0.870036 -3.48527
168 1 0.0448527 0.0533526 44.2773 -3.52254
169 1 1.83992 1.75458 44.3322 -3.49317
170 1 1.83563 0.0731085 0.852251 -3.47606
171 1 0.00908837 1.78608 0.9406 -3.51443
172 1 3.61756 -0.0902575 -1.01253 -3.53031
173 1 5.35554 1.76897 -1.03037 -3.52071
174 1 5.42391 0.0258384 0.99096 -3.48208
175 1 3.65133 1.67939 0.9543 -3.51563
176 1 7.09744 0.06481 -0.780667 -3.50347
177 1 8.98142 1.74929 -0.84481 -3.51241
178 1 8.91347 -0.0744867 1.01538 -3.49603
179 1 7.20965 1.75296 1.00383 -3.49901
180 1 10.7284 -0.00778041 -0.756746 -3.49014
181 1 12.5465 1.87979 -0.841543 -3.45753
182 1 12.4847 0.0969559 1.07848 -3.48258
183 1 10.6911 1.75383 1.11691 -3.51041
184 1 14.5154 0.12897 -0.94097 -3.43735
185 1 16.2402 1.77294 44.3444 -3.05747
186 1 16.1835 0.00475746 1.16824 -3.23883
187 1 14.3056 1.65098 0.943433 -3.47549
188 1 17.4945 -0.107782 -1.13465 -2.38539
189 1 -15.995 5.24314 44.0219 -3.0011
190 1 -16.149 3.76786 0.904033 -2.99325
191 1 -14.1835 3.61635 44.2302 -3.45397
192 1 -12.504 5.30988 44.2196 -3.46835
193 1 -12.2812 3.49306 0.787481 -3.48166
194 1 -14.1052 5.23518 0.847043 -3.44096
195 1 -10.6463 3.48074 -0.987149 -3.51412
196 1 -8.94201 5.46215 44.3138 -3.47355
197 1 -8.98897 3.44362 0.980558 -3.53234
198 1 -10.701 5.32869 0.961622 -3.51659
199 1 -7.10268 3.94541 -0.987247 -3.43144
200 1 -5.35976 5.50441 44.3035 -3.46132
201 1 -5.4078 3.65631 0.821423 -3.503
202 1 -7.26605 5.32713 1.03059 -3.49282
203 1 -3.60934 3.45131 44.3548 -3.48279
204 1 -1.60773 5.39622 44.1869 -3.45121
205 1 -1.8891 3.35521 0.985753 -3.44545
206 1 -3.44557 5.31655 0.833826 -3.54319
207 1 0.00240416 3.4722 44.2337 -3.51439
208 1 1.75238 5.24856 44.2804 -3.52079
209 1 1.79581 3.5838 0.887 -3.51659
210 1 -0.130913 5.26188 0.969376 -3.54246
211 1 3.59338 3.62621 44.2574 -3.49438
212 1 5.39256 5.22981 44.346 -3.4766
213 1 5.36575 3.50052 0.926805 -3.51179
214 1 3.52029 5.2718 1.01722 -3.48647
215 1 7.22349 3.49744 44.1778 -3.51953
216 1 9.00092 5.33526 -0.915942 -3.50665
217 1 8.92113 3.69449 0.941307 -3.52389
218 1 7.05857 5.44598 0.993244 -3.50249
219 1 10.7517 3.59286 -0.90257 -3.52268
220 1 12.6545 5.35603 -0.841897 -3.51225
221 1 12.4946 3.56255 1.1696 -3.54619
222 1 10.8043 5.46278 0.964215 -3.50088
223 1 14.2277 3.48169 44.3397 -3.43119
224 1 15.9976 5.24474 44.1927 -2.99305
225 1 16.1492 3.52318 0.96558 -3.02158
226 1 14.4134 5.37883 0.928898 -3.43948
227 1 -16.0131 6.78846 0.682447 -2.76501
228 1 -14.2532 6.96895 44.2204 -3.36395
229 1 -12.6235 9.02381 -0.933086 -3.47022
230 1 -12.5109 7.21091 0.877771 -3.50645
231 1 -14.3951 8.9554 0.708058 -3.09511
232 1 -10.7813 7.23639 44.3564 -3.52439
233 1 -8.91769 9.00052 44.3866 -3.51496
234 1 -8.91365 7.16943 0.947075 -3.50878
235 1 -10.7702 9.00574 1.01976 -3.47768
236 1 -7.18759 7.08385 44.211 -3.48677
237 1 -5.37623 8.82016 44.3413 -3.53612
238 1 -5.40293 7.08057 1.06789 -3.48025
239 1 -7.2263 9.02479 0.917933 -3.50386
240 1 -3.47562 7.04544 -1.05016 -3.51153
241 1 -1.76415 9.00388 44.3311 -3.45684
242 1 -1.7993 7.27013 0.949321 -3.43138
243 1 -3.55556 8.76652 0.846046 -3.44013
244 1 -0.110958 7.19429 44.3387 -3.47324
245 1 1.70488 8.92887 -1.03613 -3.47559
246 1 1.68249 6.95973 0.961025 -3.4939
247 1 0.0145867 8.93184 0.920428 -3.5327
248 1 3.55932 7.05508 -1.02715 -3.53778
249 1 5.36762 8.91448 -1.05558 -3.48856
250 1 5.22615 7.23769 0.774765 -3.52154
251 1 3.39694 8.88632 0.822042 -3.50986
252 1 7.15357 7.15126 -0.987639 -3.50453
253 1 9.0192 8.73002 -0.982871 -3.49338
254 1 8.89868 7.18756 0.963853 -3.5049
255 1 7.1562 8.9103 0.846029 -3.52324
256 1 10.7058 7.03771 -0.840954 -3.43133
257 1 12.2937 8.95568 -0.908434 -3.46456
258 1 12.6955 7.17657 0.972135 -3.46141
259 1 10.7523 8.90033 1.10575 -3.50379
260 1 14.3556 7.18932 -0.917394 -3.35203
261 1 16.0229 7.12784 0.872677 -2.69771
262 1 14.2391 8.97274 0.973273 -3.1144
263 1 -14.2732 10.9594 44.2408 -2.64679
264 1 -12.4308 12.5514 -1.09739 -2.89287
265 1 -12.4891 10.7702 0.963093 -3.35592
266 1 -10.7862 10.7916 -0.967793 -3.46821
267 1 -8.96627 12.4365 -0.761361 -3.44265
268 1 -8.99233 10.8801 1.07669 -3.47992
269 1 -10.814 12.6668 0.929743 -3.33153
270 1 -7.05566 10.7429 44.3734 -3.50701
271 1 -5.37479 12.6042 44.2223 -3.46797
272 1 -5.28419 10.6482 1.04676 -3.51588
273 1 -7.1156 12.5506 0.929886 -3.53011
274 1 -3.56276 10.5886 44.2436 -3.49865
275 1 -1.68094 12.5025 44.1327 -3.52133
276 1 -1.72478 10.7358 0.9123 -3.46308
277 1 -3.40206 12.484 0.734137 -3.48422
278 1 0.0295875 10.6495 44.1759 -3.48138
279 1 1.7647 12.5116 44.3617 -3.50222
280 1 1.8041 10.7983 0.880857 -3.49426
281 1 -0.04853 12.4064 0.775332 -3.46523
282 1 3.55012 10.5829 44.1978 -3.49762
283 1 5.41435 12.4791 44.3064 -3.55159
284 1 5.22301 10.608 0.901644 -3.52798
285 1 3.59137 12.4209 0.946262 -3.50854
286 1 7.1549 10.7195 -0.963263 -3.49203
287 1 8.68706 12.5414 44.4415 -3.42318
288 1 8.90919 10.6682 1.04328 -3.51515
289 1 7.06659 12.4544 1.07505 -3.55048
290 1 10.5651 10.8116 -0.893478 -3.50243
291 1 12.2362 12.5035 -0.827722 -2.83385
292 1 12.4334 10.869 0.850169 -3.29334
293 1 10.5064 12.5767 1.01732 -3.32345
294 1 14.0797 10.5544 -0.955193 -2.75042
295 1 -10.5468 14.3248 -0.892621 -2.73623
296 1 -8.82033 14.3211 0.915638 -3.1413
297 1 -6.97433 14.4054 -0.98247 -3.27907
298 1 -5.15271 16.0858 -1.18128 -3.00631
299 1 -5.09855 14.3192 0.739839 -3.38075
300 1 -6.82864 15.8754 0.850113 -2.73663
301 1 -3.44992 14.3283 -1.22489 -3.46903
302 1 -1.79175 16.0603 44.2225 -3.17307
303 1 -1.68119 14.2238 0.763262 -3.43594
304 1 -3.55082 16.2069 0.902751 -3.00632
305 1 0.160875 14.3322 44.0393 -3.44621
306 1 1.99428 16.1321 -1.14021 -3.15939
307 1 1.77147 14.2657 1.00978 -3.50366
308 1 -0.0512939 15.8387 0.762651 -3.06636
309 1 3.60119 14.2691 44.3245 -3.46246
310 1 5.21515 16.1094 -0.934618 -2.98291
311 1 5.30276 14.3476 0.912437 -3.40167
312 1 3.52732 16.0802 0.854005 -3.08327
313 1 7.11242 14.3977 -0.886514 -3.3547
314 1 8.8088 14.4357 1.17587 -3.10967
315 1 6.84414 16.0014 0.845138 -2.69826
316 1 10.3417 14.3423 -0.923969 -2.70635
317 1 0.188482 17.7275 44.6262 -2.47123
318 1 -5.15513 -16.0965 2.91504 -2.98166
319 1 -6.97949 -16.0056 4.95865 -2.72333
320 1 -1.78325 -15.8943 3.08969 -3.13987
321 1 -3.56159 -16.0248 4.9005 -3.05113
322 1 -0.0501795 -17.6379 2.93658 -2.33314
323 1 1.86459 -16.0916 2.86453 -3.0816
324 1 0.111533 -16.0045 4.81879 -3.26206
325 1 5.37472 -15.7634 2.85305 -2.97049
326 1 3.70598 -15.9261 4.77843 -3.0456
327 1 7.11725 -16.0015 4.90483 -2.6939
328 1 -12.4834 -12.631 2.72802 -2.74665
329 1 -10.4925 -14.0254 2.7494 -2.74951
330 1 -8.72025 -12.4702 2.89664 -3.42536
331 1 -8.85553 -14.1936 4.74497 -3.11298
332 1 -10.8343 -12.6301 4.83594 -3.30163
333 1 -7.03238 -14.402 2.87361 -3.37901
334 1 -5.39574 -12.4506 2.95927 -3.50434
335 1 -5.32041 -14.2179 4.74774 -3.40692
336 1 -7.10299 -12.4324 4.76145 -3.50112
337 1 -3.67269 -14.1738 3.01327 -3.42762
338 1 -1.84097 -12.479 2.90344 -3.50484
339 1 -1.78466 -14.2026 4.87187 -3.44752
340 1 -3.62955 -12.5707 4.80063 -3.47695
341 1 -0.0962913 -14.3204 2.97902 -3.48343
342 1 1.72265 -12.39 3.06061 -3.43607
343 1 1.78458 -14.1749 4.84992 -3.46821
344 1 0.00168996 -12.5746 4.87714 -3.47419
345 1 3.36042 -14.2739 2.84195 -3.38399
346 1 5.49823 -12.5325 2.87319 -3.5345
347 1 5.57772 -14.2448 4.86207 -3.37277
348 1 3.60227 -12.5261 4.60593 -3.46955
349 1 7.17617 -14.3897 2.81765 -3.28658
350 1 8.94067 -12.5937 2.83095 -3.47794
351 1 8.85904 -14.3661 4.68373 -3.1324
352 1 7.18827 -12.4934 4.69238 -3.48682
353 1 10.5814 -14.4111 2.83141 -2.71091
354 1 12.4501 -12.5855 2.83658 -2.84712
355 1 10.7004 -12.6445 4.77699 -3.34222
356 1 -14.3467 -10.5144 2.74811 -2.67764
357 1 -12.5367 -8.87261 2.90993 -3.45524
358 1 -12.5234 -10.6599 4.726 -3.36113
359 1 -14.533 -8.9385 4.61428 -3.08214
360 1 -10.6597 -10.7382 3.0243 -3.50538
361 1 -8.88777 -9.01445 2.93478 -3.47216
362 1 -8.87138 -10.7029 4.72256 -3.49836
363 1 -10.6194 -8.81073 4.72854 -3.48579
364 1 -7.07308 -10.7283 2.75055 -3.44097
365 1 -5.32828 -8.89761 2.95732 -3.49456
366 1 -5.23518 -10.6112 4.78012 -3.52235
367 1 -7.10951 -8.95961 4.63647 -3.46708
368 1 -3.49323 -10.8139 3.01061 -3.47429
369 1 -1.82606 -8.94354 2.77187 -3.49826
370 1 -1.86486 -10.7734 4.814 -3.52275
371 1 -3.51729 -8.86189 4.65817 -3.50887
372 1 0.0261748 -10.6754 2.86549 -3.5163
373 1 1.74954 -8.87167 2.77672 -3.49233
374 1 1.82488 -10.6989 4.72794 -3.50141
375 1 -0.0387477 -9.01947 4.79245 -3.52913
376 1 3.50112 -10.6885 2.86196 -3.48509
377 1 5.3663 -8.89065 2.92508 -3.51338
378 1 5.29671 -10.8688 4.81348 -3.50797
379 1 3.59591 -8.89399 4.6934 -3.46606
380 1 7.17829 -10.6674 2.92229 -3.48435
381 1 8.92891 -9.01946 2.73592 -3.45463
382 1 8.99223 -10.7075 4.66424 -3.54138
383 1 7.09764 -8.96324 4.73732 -3.5161
384 1 10.7071 -10.861 2.86345 -3.4869
385 1 12.5203 -8.89747 3.02667 -3.43653
386 1 12.4034 -10.896 4.70029 -3.34656
387 1 10.848 -8.95935 4.93026 -3.47861
388 1 14.2624 -10.6283 2.8842 -2.69103
389 1 14.3506 -8.94213 4.99769 -3.13076
390 1 -16.0846 -5.42021 2.80482 -2.97904
391 1 -16.0327 -7.03881 4.84996 -2.72702
392 1 -14.4049 -7.11984 2.92298 -3.32789
393 1 -12.4332 -5.51727 3.034 -3.52778
394 1 -12.5828 -7.36341 4.9078 -3.45262
395 1 -14.223 -5.59085 4.85123 -3.38048
396 1 -10.7104 -7.34738 2.81967 -3.43495
397 1 -9.00631 -5.4743 3.06036 -3.50197
398 1 -8.86993 -7.03904 4.83422 -3.45547
399 1 -10.6976 -5.31203 4.86358 -3.4826
400 1 -7.15232 -7.25235 2.92333 -3.50062
401 1 -5.28179 -5.34827 2.91544 -3.49673
402 1 -5.42868 -7.13674 4.7385 -3.53265
403 1 -7.15039 -5.29331 4.96422 -3.45351
404 1 -3.5912 -7.14269 2.87206 -3.49911
405 1 -1.81369 -5.35074 2.79562 -3.51656
406 1 -1.73116 -7.09084 4.70521 -3.5089
407 1 -3.57549 -5.44764 4.74282 -3.49882
408 1 -0.0639305 -7.21235 2.76813 -3.52733
409 1 1.79656 -5.49617 2.95623 -3.48004
410 1 1.81294 -7.31782 4.78338 -3.5151
411 1 0.050003 -5.4391 4.64434 -3.48546
412 1 3.45386 -7.21169 2.80457 -3.46045
413 1 5.30268 -5.46377 2.8675 -3.52028
414 1 5.23215 -7.19241 4.77625 -3.47095
415 1 3.56438 -5.38079 4.90236 -3.50301
416 1 7.1575 -7.2076 2.94109 -3.49406
417 1 9.01478 -5.64458 2.79148 -3.42046
418 1 8.90296 -7.28922 4.75119 -3.52992
419 1 6.9759 -5.47647 4.78768 -3.52496
420 1 10.6784 -7.31177 2.97008 -3.45984
421 1 12.5343 -5.49233 2.96066 -3.5247
422 1 12.5227 -7.16928 4.77672 -3.44866
423 1 10.6312 -5.3819 4.83756 -3.50854
424 1 14.2759 -7.28441 3.05321 -3.31971
425 1 16.0728 -5.26564 2.95692 -2.9956
426 1 16.1712 -7.15291 4.76028 -2.66808
427 1 14.2113 -5.49597 4.72796 -3.43557
428 1 -16.0883 -1.88034 2.86199 -3.11731
429 1 -15.9698 -3.69049 4.75621 -3.07446
430 1 -14.2798 -3.65705 2.84806 -3.4867
431 1 -12.5781 -1.74535 2.74756 -3.50659
432 1 -12.6032 -3.65421 4.72895 -3.5169
433 1 -14.386 -1.74092 4.83892 -3.37655
434 1 -10.8201 -3.55076 2.91628 -3.48455
435 1 -9.10103 -1.75273 2.9991 -3.47307
436 1 -9.06593 -3.50696 4.65077 -3.4642
437 1 -10.8364 -1.83648 4.76156 -3.4916
438 1 -7.21883 -3.67674 3.01472 -3.49088
439 1 -5.34208 -1.80239 2.97691 -3.49487
440 1 -5.33087 -3.70996 4.87202 -3.5032
441 1 -7.16418 -1.88415 4.76528 -3.5218
442 1 -3.54589 -3.60558 2.83545 -3.49304
443 1 -1.73916 -1.89239 2.9371 -3.51995
444 1 -1.81333 -3.75984 4.87009 -3.49449
445 1 -3.6022 -2.03319 4.72637 -3.46602
446 1 0.104613 -3.72397 2.7422 -3.5226
447 1 1.84708 -1.79943 2.70949 -3.49429
448 1 1.78174 -3.74066 4.77301 -3.46716
449 1 0.15563 -1.79139 4.71845 -3.48443
450 1 3.47635 -3.50659 2.95034 -3.46209
451 1 5.36951 -1.67628 2.844 -3.46366
452 1 5.28504 -3.47102 4.66592 -3.48986
453 1 3.47959 -1.8618 4.71905 -3.50514
454 1 7.09332 -3.57771 2.92833 -3.52445
455 1 8.90021 -1.81801 3.11726 -3.45457
456 1 8.88634 -3.79486 4.7332 -3.46654
457 1 7.19789 -1.95487 4.88977 -3.44396
458 1 10.6844 -3.65992 2.81937 -3.51686
459 1 12.5329 -1.78176 2.914 -3.53077
460 1 12.579 -3.62362 4.67597 -3.5336
461 1 10.6386 -1.8996 4.79149 -3.50852
462 1 14.4198 -3.58006 2.81087 -3.43695
463 1 16.1703 -1.78184 2.95046 -3.17398
464 1 15.9451 -3.61233 4.72329 -3.04569
465 1 14.2852 -1.68718 4.61961 -3.4295
466 1 -17.4548 0.17975 2.80892 -2.60866
467 1 -16.1022 2.04899 2.62289 -3.15668
468 1 -16.2427 -0.20738 4.94229 -3.15043
469 1 -14.5424 -0.0381735 2.86107 -3.48606
470 1 -12.7299 1.79775 2.78303 -3.4767
471 1 -12.6543 -0.149306 4.5666 -3.46184
472 1 -14.3721 1.66515 4.76798 -3.56135
473 1 -10.8468 0.16164 2.8673 -3.43599
474 1 -8.94485 1.80642 2.93008 -3.4888
475 1 -8.94351 -0.143586 4.75366 -3.48356
476 1 -10.7795 1.62915 4.66717 -3.46882
477 1 -7.0296 0.0616615 2.71672 -3.45011
478 1 -5.40218 1.76062 2.811 -3.45402
479 1 -5.30855 -0.256284 4.81202 -3.46818
480 1 -7.22012 1.57425 4.72923 -3.51805
481 1 -3.65171 -0.024281 2.69036 -3.494
482 1 -1.84249 1.80879 2.78597 -3.49774
483 1 -1.93681 -0.0360312 4.59488 -3.47734
484 1 -3.59659 1.58105 4.70236 -3.46944
485 1 -0.00687919 -0.111806 2.75342 -3.50747
486 1 1.74678 1.71327 2.84033 -3.53239
487 1 1.76516 -0.0353193 4.64726 -3.45683
488 1 -0.0118382 1.61508 4.68606 -3.52747
489 1 3.67165 0.0103868 2.92116 -3.49045
490 1 5.38848 1.70514 2.79008 -3.49931
491 1 5.38928 -0.100582 4.78282 -3.49728
492 1 3.51917 1.72007 4.69843 -3.51538
493 1 7.11288 -0.0956454 2.93624 -3.4962
494 1 8.92404 1.66507 2.86037 -3.49178
495 1 9.09185 0.0166075 4.69958 -3.48461
496 1 7.1365 1.66277 4.75842 -3.50404
497 1 10.6276 -0.0721992 2.76721 -3.45463
498 1 12.6191 1.74311 2.96418 -3.50277
499 1 12.4071 -0.0203224 4.77874 -3.53189
500 1 10.8038 1.93415 4.5916 -3.49314
501 1 14.4936 0.1193 2.93789 -3.42056
502 1 16.199 1.92558 2.78869 -3.04782
503 1 15.8238 0.0673665 4.82254 -3.08523
504 1 14.304 1.80214 4.79326 -3.43885
505 1 17.6333 0.284407 3.36345 -2.40727
506 1 -16.0568 5.18458 2.80381 -2.97938
507 1 -16.0435 3.61259 4.62565 -3.04668
508 1 -14.1993 3.63394 2.72528 -3.4264
509 1 -12.4517 5.46362 2.74213 -3.5236
510 1 -12.5303 3.53347 4.7248 -3.51124
511 1 -14.3461 5.25718 4.67394 -3.41464
512 1 -10.7284 3.58188 2.84304 -3.53463
513 1 -9.01958 5.43092 2.75912 -3.49371
514 1 -9.00124 3.44809 4.71111 -3.49746
515 1 -10.6493 5.38255 4.64097 -3.50882
516 1 -7.07192 3.49918 2.887 -3.51374
517 1 -5.25867 5.31144 2.85304 -3.47862
518 1 -5.36507 3.52211 4.78819 -3.52614
519 1 -7.33254 5.37544 4.68105 -3.49986
520 1 -3.61014 3.60072 2.91481 -3.48668
521 1 -1.91256 5.37756 2.83233 -3.50698
522 1 -1.79024 3.3664 4.80012 -3.49986
523 1 -3.57754 5.37421 4.80985 -3.45525
524 1 0.0499893 3.4883 2.80998 -3.51606
525 1 1.82034 5.2982 2.69392 -3.46858
526 1 1.78031 3.57348 4.60478 -3.48221
527 1 -0.0378275 5.2055 4.66243 -3.49606
528 1 3.67252 3.47935 2.84596 -3.52425
529 1 5.35095 5.27217 2.80376 -3.49568
530 1 5.35672 3.4002 4.79665 -3.51721
531 1 3.48644 5.25489 4.57727 -3.48617
532 1 7.09012 3.60548 2.68024 -3.46786
533 1 8.75074 5.46789 2.83543 -3.50251
534 1 8.95967 3.6387 4.72672 -3.51474
535 1 7.02663 5.2819 4.66328 -3.50314
536 1 10.6717 3.63808 2.91043 -3.49205
537 1 12.5914 5.5615 2.82707 -3.5127
538 1 12.6213 3.69562 4.65173 -3.50672
539 1 10.8302 5.36125 4.70631 -3.5252
540 1 14.4298 3.63143 2.859 -3.47875
541 1 16.2254 5.26215 2.96347 -2.95905
542 1 16.0135 3.6086 4.90333 -3.06882
543 1 14.3178 5.36432 4.82292 -3.41594
544 1 -16.0825 6.9969 4.6804 -2.69192
545 1 -14.3492 7.19425 2.65854 -3.35478
546 1 -12.6878 8.9286 2.79475 -3.45488
547 1 -12.5325 7.0477 4.70781 -3.50641
548 1 -14.3619 8.89699 4.65922 -3.11295
549 1 -10.697 7.34982 2.79049 -3.5172
550 1 -8.90969 9.04422 2.90414 -3.52248
551 1 -8.92095 7.1591 4.72912 -3.47583
552 1 -10.7693 8.97431 4.81218 -3.49072
553 1 -7.12118 7.15409 2.82513 -3.53073
554 1 -5.31994 8.96639 2.80977 -3.50043
555 1 -5.33227 7.00869 4.75849 -3.49742
556 1 -7.02426 8.9801 4.70034 -3.52789
557 1 -3.69297 7.14678 2.69669 -3.44367
558 1 -1.94433 8.90201 2.72082 -3.47924
559 1 -1.86651 7.16024 4.6323 -3.5027
560 1 -3.5195 9.05206 4.62905 -3.51714
561 1 -0.0774364 7.01979 2.82429 -3.52575
562 1 1.7662 8.83544 2.89166 -3.46548
563 1 1.773 7.06355 4.78775 -3.53425
564 1 -0.0767466 8.93452 4.77254 -3.49596
565 1 3.4814 7.24918 2.68626 -3.47097
566 1 5.19753 8.98924 2.77729 -3.46581
567 1 5.20132 7.01815 4.6789 -3.50491
568 1 3.56425 8.99906 4.70723 -3.50763
569 1 6.99412 7.27461 2.76403 -3.51592
570 1 8.87489 8.81322 2.87742 -3.4809
571 1 8.80619 7.10264 4.72315 -3.53129
572 1 7.09956 8.91866 4.63271 -3.47843
573 1 10.6298 7.08731 2.86501 -3.50059
574 1 12.5233 8.76787 2.85192 -3.47016
575 1 12.6748 7.12836 4.77838 -3.5028
576 1 10.667 8.78818 4.79346 -3.48834
577 1 14.5059 7.09688 2.78857 -3.34625
578 1 16.0815 6.94951 4.75357 -2.74709
579 1 14.4593 8.90511 4.70662 -3.10697
580 1 -14.3896 10.7522 2.75402 -2.64333
581 1 -12.5676 12.5961 2.87807 -2.83374
582 1 -12.6234 10.722 4.6056 -3.32007
583 1 -10.8029 10.7058 2.74163 -3.48919
584 1 -9.05036 12.575 2.75787 -3.44563
585 1 -9.00707 10.9743 4.66042 -3.44194
586 1 -10.9082 12.502 4.78223 -3.32247
587 1 -7.18062 10.8304 2.84078 -3.50958
588 1 -5.19434 12.5919 2.64929 -3.53348
589 1 -5.34616 10.8962 4.60501 -3.45923
590 1 -7.11838 12.5437 4.51026 -3.39806
591 1 -3.55605 10.6772 2.87135 -3.43611
592 1 -1.78082 12.378 2.66748 -3.48184
593 1 -1.6047 10.8188 4.72717 -3.49285
594 1 -3.50527 12.4473 4.64569 -3.51366
595 1 -0.0242528 10.6625 2.75956 -3.5244
596 1 1.64734 12.5476 2.83294 -3.54076
597 1 1.74473 10.6788 4.62121 -3.50988
598 1 0.00546512 12.648 4.69069 -3.50997
599 1 3.37256 10.6422 2.84901 -3.48933
600 1 5.14911 12.5261 2.87436 -3.50072
601 1 5.29823 10.8464 4.7147 -3.5142
602 1 3.48397 12.6254 4.65458 -3.47606
603 1 6.96806 10.5992 2.84861 -3.50637
604 1 8.95532 12.3776 2.8334 -3.49277
605 1 8.89571 10.517 4.63281 -3.49465
606 1 7.14043 12.5768 4.57813 -3.51906
607 1 10.7254 10.5188 2.83569 -3.47276
608 1 12.2417 12.3575 2.92963 -2.88744
609 1 12.4338 10.5366 4.79832 -3.33717
610 1 10.6447 12.348 4.80299 -3.33666
611 1 13.9819 10.6839 2.91367 -2.7406
612 1 -10.7443 14.3439 2.755 -2.65838
613 1 -9.00677 14.3422 4.72619 -3.1186
614 1 -7.14847 14.1809 2.91318 -3.31268
615 1 -5.22435 15.925 2.83152 -3.00768
616 1 -5.25589 14.3657 4.68016 -3.44051
617 1 -6.9736 16.0118 4.62854 -2.70054
618 1 -3.44698 14.2821 2.69438 -3.46936
619 1 -1.77771 16.1745 2.79609 -3.13405
620 1 -1.88208 14.3953 4.74107 -3.47789
621 1 -3.56533 16.1951 4.63765 -2.99178
622 1 -0.123392 14.2559 2.84434 -3.49959
623 1 1.68748 16.1401 2.61777 -3.15209
624 1 1.7393 14.5055 4.5197 -3.4049
625 1 0.0639937 16.1204 4.47335 -3.14455
626 1 3.51605 14.3495 2.79282 -3.44646
627 1 5.2049 16.098 2.77402 -3.01483
628 1 5.25468 14.3248 4.56734 -3.41937
629 1 3.34743 16.222 4.36443 -2.98272
630 1 7.08868 14.3085 2.85476 -3.32967
631 1 8.93796 14.2933 4.57976 -3.11247
632 1 6.98235 15.9066 4.60361 -2.74213
633 1 10.6027 14.3093 2.8509 -2.67845
634 1 -0.139625 17.7345 1.93442 -2.39533
635 1 -5.27304 -15.7865 6.70686 -3.01431
636 1 -7.02773 -15.9103 8.27259 -2.73742
637 1 -1.87952 -15.8259 6.70097 -3.11494
638 1 -3.56786 -16.0258 8.60022 -3.03858
639 1 -0.0237586 -17.5922 6.74384 -2.34121
640 1 1.90801 -16.0926 6.57886 -3.11662
641 1 -0.0542123 -16.1807 8.53031 -3.16907
642 1 5.48214 -15.9165 6.89621 -2.96664
643 1 3.72424 -16.0229 8.59244 -3.04376
644 1 6.90568 -16.107 8.73426 -2.72662
645 1 -12.5679 -12.1488 6.79674 -2.86304
646 1 -10.5986 -14.1208 6.85349 -2.69178
647 1 -8.96163 -12.4796 6.66995 -3.40999
648 1 -8.93434 -14.3115 8.59349 -3.08279
649 1 -10.7326 -12.2847 8.55948 -3.35754
650 1 -7.32772 -14.1927 6.55713 -3.2898
651 1 -5.39413 -12.5344 6.74449 -3.54755
652 1 -5.2605 -14.077 8.70306 -3.44821
653 1 -7.25433 -12.5092 8.60635 -3.49984
654 1 -3.54841 -14.1868 6.86887 -3.39209
655 1 -1.7096 -12.5087 6.60513 -3.50635
656 1 -1.84632 -14.2059 8.60576 -3.46329
657 1 -3.50983 -12.3183 8.5056 -3.4575
658 1 -0.0839619 -14.3564 6.74919 -3.44347
659 1 1.61118 -12.5899 6.83046 -3.47898
660 1 1.69714 -14.4565 8.40262 -3.41801
661 1 -0.109393 -12.5023 8.84269 -3.43748
662 1 3.54193 -14.2547 6.69249 -3.4709
663 1 5.37664 -12.6547 6.6032 -3.49019
664 1 5.371 -14.1949 8.5391 -3.39475
665 1 3.45477 -12.5168 8.58953 -3.49188
666 1 7.30371 -14.2804 6.67456 -3.34693
667 1 8.81622 -12.4282 6.53937 -3.41871
668 1 8.84801 -14.4136 8.7509 -3.10794
669 1 7.0582 -12.5641 8.44472 -3.48095
670 1 10.4707 -14.1465 6.69241 -2.7833
671 1 12.5297 -12.6508 6.62049 -2.84199
672 1 10.6537 -12.554 8.46748 -3.29638
673 1 -14.2632 -10.5074 6.58522 -2.74857
674 1 -12.3976 -8.9927 6.57256 -3.40891
675 1 -12.5722 -10.5652 8.64952 -3.32061
676 1 -14.4715 -8.95281 8.64711 -3.0787
677 1 -10.7028 -10.7051 6.68513 -3.43822
678 1 -8.90272 -8.90938 6.73409 -3.53767
679 1 -8.85216 -10.6685 8.51282 -3.48784
680 1 -10.7486 -9.03938 8.47081 -3.47966
681 1 -7.0707 -10.6927 6.68068 -3.5344
682 1 -5.27695 -8.87784 6.68931 -3.52619
683 1 -5.26611 -10.7143 8.57298 -3.50751
684 1 -7.03598 -8.97854 8.55547 -3.4745
685 1 -3.54923 -10.7083 6.70272 -3.51864
686 1 -1.80905 -8.88209 6.69551 -3.52875
687 1 -1.71229 -10.7099 8.46461 -3.50008
688 1 -3.48448 -8.88291 8.6137 -3.49537
689 1 0.0275942 -10.6815 6.6403 -3.50389
690 1 1.75745 -8.94211 6.66384 -3.49021
691 1 1.73434 -10.8503 8.61534 -3.49248
692 1 0.0391871 -8.92546 8.51626 -3.51021
693 1 3.45433 -10.8335 6.61759 -3.55249
694 1 5.28868 -9.02054 6.61558 -3.47349
695 1 5.24943 -10.7414 8.40311 -3.49174
696 1 3.50798 -8.9012 8.55262 -3.52858
697 1 7.02131 -10.6643 6.6486 -3.49076
698 1 8.96267 -8.95162 6.64549 -3.48446
699 1 8.83297 -10.804 8.46234 -3.52245
700 1 6.9613 -9.08891 8.51247 -3.49196
701 1 10.6907 -10.8518 6.63365 -3.51622
702 1 12.5819 -9.11294 6.73586 -3.38392
703 1 12.3761 -10.8785 8.46194 -3.28347
704 1 10.5488 -9.02779 8.47765 -3.50033
705 1 14.1929 -10.7317 6.68815 -2.68403
706 1 14.2471 -9.10846 8.5355 -3.06432
707 1 -16.1092 -5.3903 6.72666 -3.01538
708 1 -16.0974 -7.08845 8.74646 -2.74558
709 1 -14.454 -7.36183 6.75146 -3.39277
710 1 -12.7122 -5.58324 6.70595 -3.42908
711 1 -12.5749 -7.39469 8.51758 -3.52982
712 1 -14.3137 -5.41888 8.48779 -3.44612
713 1 -10.6941 -7.06875 6.62644 -3.50058
714 1 -9.00781 -5.37951 6.63788 -3.44197
715 1 -8.82515 -7.16626 8.58555 -3.5172
716 1 -10.7373 -5.32965 8.58771 -3.50996
717 1 -7.13996 -6.95325 6.63897 -3.45322
718 1 -5.24478 -5.3209 6.85572 -3.46493
719 1 -5.40893 -7.20576 8.50307 -3.52011
720 1 -7.2522 -5.35003 8.4776 -3.49373
721 1 -3.56258 -7.10645 6.5686 -3.4898
722 1 -1.85451 -5.45431 6.57255 -3.47038
723 1 -1.84881 -7.09162 8.54133 -3.47141
724 1 -3.52998 -5.47254 8.5545 -3.4642
725 1 -0.0579432 -7.19295 6.62584 -3.53058
726 1 1.81212 -5.49033 6.56941 -3.50337
727 1 1.74225 -7.20227 8.53682 -3.47956
728 1 0.0485209 -5.2529 8.54129 -3.51884
729 1 3.48182 -7.23298 6.68507 -3.49338
730 1 5.26267 -5.37105 6.72963 -3.51267
731 1 5.28973 -7.1043 8.52867 -3.52165
732 1 3.45962 -5.38931 8.52629 -3.52568
733 1 6.99182 -7.31178 6.61031 -3.52924
734 1 8.79638 -5.39154 6.64426 -3.5021
735 1 8.74195 -7.35707 8.53723 -3.49353
736 1 7.15392 -5.48699 8.43863 -3.49224
737 1 10.6985 -7.27942 6.69743 -3.50292
738 1 12.4605 -5.38441 6.67482 -3.51687
739 1 12.3935 -7.26165 8.54158 -3.51463
740 1 10.5858 -5.43564 8.55532 -3.52029
741 1 14.2288 -7.18087 6.72223 -3.39453
742 1 16.1183 -5.53827 6.41491 -2.9517
743 1 16.0121 -6.9138 8.46879 -2.71673