ITEM: TIMESTEP
74000
ITEM: NUMBER OF ATOMS
3804
ITEM: BOX BOUNDS ss ss pp
-1.7540017727121416e+01 1.7525681464447118e+01
-1.7507721229670288e+01 1.7623409432240617e+01
-1.6050599999999999e+00 4.4985060000000004e+01
ITEM: ATOMS id type x y z c_peratom
1 1 -5.19762 -15.7604 -1.48062 -2.98547
2 1 -7.15819 -15.8666 0.529223 -2.67328
3 1 -2.01407 -16.0229 44.987 -3.06096
4 1 -3.61148 -15.9902 0.344743 -2.99151
5 1 0.0449176 -17.4195 -1.4818 -2.33977
6 1 1.91053 -15.9015 -1.62722 -3.11668
7 1 0.158636 -16.0328 0.337914 -3.15425
8 1 5.17934 -15.7535 44.9207 -3.01069
9 1 3.36083 -15.9521 0.273052 -2.97251
10 1 6.79906 -15.8079 0.408958 -2.69329
11 1 -12.4186 -12.3838 44.993 -2.81312
12 1 -10.7888 -14.0167 44.7876 -2.63656
13 1 -8.98137 -12.5003 44.9083 -3.3959
14 1 -8.89591 -14.2488 0.34677 -3.07288
15 1 -10.6002 -12.4122 0.303348 -3.30858
16 1 -6.99647 -14.1579 -1.46087 -3.30359
17 1 -5.22935 -12.4595 -1.49765 -3.50558
18 1 -5.44726 -14.245 0.567986 -3.35801
19 1 -7.00852 -12.5852 0.39463 -3.44653
20 1 -3.48004 -14.1205 -1.40061 -3.3994
21 1 -1.72068 -12.399 -1.52508 -3.50089
22 1 -1.79849 -14.2616 0.422984 -3.45249
23 1 -3.41504 -12.3701 0.439929 -3.50276
24 1 -0.0753491 -14.2367 -1.58428 -3.53997
25 1 1.67759 -12.4913 -1.61525 -3.44601
26 1 1.79985 -14.1627 0.268354 -3.47088
27 1 -0.105249 -12.4929 0.567751 -3.48712
28 1 3.47773 -13.9778 44.9514 -3.42746
29 1 5.31707 -12.245 -1.56567 -3.53798
30 1 5.09107 -14.1186 0.320013 -3.45862
31 1 3.44766 -12.2884 0.426639 -3.49325
32 1 7.11399 -14.1169 -1.50122 -3.36562
33 1 8.73535 -12.1855 -1.51713 -3.37151
34 1 8.72282 -14.1173 0.289856 -3.10675
35 1 6.92246 -12.264 0.408179 -3.52265
36 1 10.3774 -13.8269 -1.59857 -2.75589
37 1 12.2828 -12.2018 -1.32898 -2.87301
38 1 10.4808 -12.3125 0.28966 -3.28347
39 1 -14.1137 -10.4429 -1.41139 -2.71515
40 1 -12.4067 -8.73465 44.9901 -3.43197
41 1 -12.2949 -10.678 0.281517 -3.3208
42 1 -14.0295 -8.71255 0.327744 -3.13088
43 1 -10.7162 -10.6344 -1.59054 -3.49699
44 1 -8.81132 -8.96595 -1.43967 -3.49198
45 1 -8.88332 -10.7011 0.421696 -3.48357
46 1 -10.5279 -8.94352 0.400892 -3.49437
47 1 -7.10362 -10.7863 -1.56113 -3.53288
48 1 -5.33277 -8.88598 -1.59011 -3.51177
49 1 -5.23427 -10.7401 0.40836 -3.52008
50 1 -7.13718 -8.93066 0.278722 -3.49976
51 1 -3.49415 -10.6723 -1.52494 -3.51751
52 1 -1.73863 -8.83868 -1.44557 -3.52271
53 1 -1.75169 -10.5192 0.428975 -3.49671
54 1 -3.56003 -8.82853 0.385291 -3.49932
55 1 0.120508 -10.6722 -1.4348 -3.45146
56 1 1.69452 -8.79216 -1.54163 -3.49882
57 1 1.55397 -10.7528 0.467365 -3.45149
58 1 -0.0932696 -8.72426 0.507016 -3.44699
59 1 3.4553 -10.5797 44.942 -3.53229
60 1 5.31974 -8.94779 -1.49209 -3.46942
61 1 5.11757 -10.481 0.434979 -3.47075
62 1 3.32157 -8.90918 0.343177 -3.51401
63 1 7.034 -10.5271 -1.41808 -3.43878
64 1 8.75172 -8.73848 -1.49075 -3.45387
65 1 8.80095 -10.5858 0.416363 -3.51866
66 1 6.96813 -8.70712 0.504996 -3.47276
67 1 10.4695 -10.4268 -1.54826 -3.50121
68 1 12.2253 -8.77168 -1.65082 -3.4063
69 1 12.1219 -10.323 0.351038 -3.40524
70 1 10.3727 -8.62862 0.357401 -3.50288
71 1 13.9809 -10.3887 -1.46559 -2.73944
72 1 14.0441 -8.71258 0.194295 -3.10608
73 1 -15.7341 -5.08343 44.9547 -3.02795
74 1 -15.5763 -6.59308 0.337376 -2.8042
75 1 -14.0205 -6.9326 44.9333 -3.3538
76 1 -12.2475 -5.22343 -1.57544 -3.51279
77 1 -12.2256 -6.97131 0.261604 -3.50214
78 1 -13.8219 -4.99964 0.329823 -3.38003
79 1 -10.5479 -7.15186 44.9922 -3.48843
80 1 -8.91157 -5.48437 -1.56078 -3.41531
81 1 -8.89707 -7.17737 0.399828 -3.48719
82 1 -10.5625 -5.29836 0.402241 -3.48079
83 1 -7.19318 -7.12806 -1.52486 -3.47943
84 1 -5.50973 -5.34826 -1.33848 -3.47963
85 1 -5.33285 -7.1505 0.342979 -3.51747
86 1 -7.20517 -5.29546 0.520505 -3.47895
87 1 -3.65435 -7.15059 -1.45052 -3.49045
88 1 -1.95911 -5.2278 -1.41706 -3.51315
89 1 -1.91065 -6.9892 0.498631 -3.52187
90 1 -3.63488 -5.24775 0.553074 -3.43832
91 1 -0.105951 -6.96385 -1.45791 -3.51268
92 1 1.75104 -5.32589 44.9054 -3.46294
93 1 1.55255 -7.086 0.443259 -3.43848
94 1 -0.123089 -5.2261 0.525918 -3.48214
95 1 3.56064 -7.15631 44.9766 -3.49773
96 1 5.16732 -5.32951 -1.40056 -3.45876
97 1 5.20378 -7.15612 0.427694 -3.51293
98 1 3.43605 -5.42055 0.492383 -3.49037
99 1 6.95611 -7.0893 44.9846 -3.536
100 1 8.89827 -5.29248 44.9604 -3.5003
101 1 8.57209 -6.85164 0.374385 -3.44334
102 1 6.98239 -5.14244 0.421395 -3.40923
103 1 10.4438 -7.12636 44.9499 -3.44699
104 1 12.3184 -5.30555 44.9873 -3.52289
105 1 12.294 -7.10226 0.322266 -3.47242
106 1 10.5969 -5.41445 0.340803 -3.51446
107 1 13.9573 -7.09265 44.8721 -3.34281
108 1 15.9097 -5.51828 -1.60944 -2.95827
109 1 16.0235 -7.0041 0.366832 -2.63282
110 1 14.2356 -5.32848 0.24922 -3.38618
111 1 -15.9533 -1.88232 -1.3969 -3.13338
112 1 -15.862 -3.65592 0.346386 -3.04631
113 1 -13.8731 -3.33225 -1.46159 -3.45724
114 1 -12.0423 -1.71633 45.0409 -3.49962
115 1 -12.0842 -3.45473 0.407577 -3.44361
116 1 -13.9937 -1.66444 0.235411 -3.46804
117 1 -10.3686 -3.63721 44.9823 -3.4789
118 1 -8.8121 -1.63106 44.9311 -3.49558
119 1 -8.73581 -3.3692 0.355124 -3.50836
120 1 -10.5507 -1.62206 0.311724 -3.45127
121 1 -7.1542 -3.5684 44.8813 -3.49869
122 1 -5.2167 -1.52816 -1.55214 -3.36485
123 1 -5.26862 -3.60476 0.463824 -3.45983
124 1 -6.94655 -1.64212 0.251137 -3.50858
125 1 -3.73586 -3.4821 -1.53933 -3.47404
126 1 -1.90949 -1.81976 45.0436 -3.52746
127 1 -1.85172 -3.56567 0.515199 -3.44506
128 1 -3.50694 -1.60307 0.587103 -3.47008
129 1 -0.0324338 -3.60947 -1.53359 -3.51764
130 1 1.76066 -1.82318 44.961 -3.50404
131 1 1.68157 -3.44821 0.508272 -3.51062
132 1 -0.170141 -1.90175 0.250836 -3.46133
133 1 3.42216 -3.60196 -1.42802 -3.47944
134 1 5.22811 -1.84483 44.902 -3.48326
135 1 5.19983 -3.59144 0.512389 -3.46884
136 1 3.52877 -1.69864 0.470203 -3.48839
137 1 7.04549 -3.70635 44.8924 -3.48645
138 1 8.68991 -1.85412 44.952 -3.50026
139 1 8.77513 -3.54805 0.291771 -3.51197
140 1 7.02112 -1.85611 0.33867 -3.49844
141 1 10.6224 -3.44902 -1.42813 -3.49488
142 1 12.5514 -1.71002 -1.53053 -3.49497
143 1 12.4172 -3.5506 0.55561 -3.4637
144 1 10.7125 -1.84952 0.338875 -3.45357
145 1 14.1602 -3.55043 -1.4273 -3.44477
146 1 15.9369 -1.83361 -1.54784 -3.09462
147 1 15.8272 -3.69843 0.492226 -2.98067
148 1 14.2725 -1.77221 0.646354 -3.44633
149 1 -17.5273 0.0496974 -1.56701 -2.30536
150 1 -16.0323 1.91055 44.7714 -3.09921
151 1 -15.8324 0.00844665 0.234777 -3.24203
152 1 -14.2274 0.0561461 44.7536 -3.50162
153 1 -12.3383 1.80698 44.8015 -3.5101
154 1 -12.3563 0.0897422 0.222337 -3.4818
155 1 -14.0867 1.83559 0.140428 -3.43365
156 1 -10.3397 0.175005 44.8521 -3.39817
157 1 -8.75579 1.95475 44.9924 -3.47087
158 1 -8.71624 0.203962 0.211992 -3.47833
159 1 -10.6466 1.88183 0.396181 -3.51985
160 1 -6.90373 0.138434 44.9257 -3.48802
161 1 -5.2015 1.92265 44.9463 -3.51736
162 1 -5.20634 0.0931256 0.322613 -3.46602
163 1 -7.03562 1.82093 0.183771 -3.47023
164 1 -3.51705 0.0698647 -1.55521 -3.46031
165 1 -1.76519 1.75268 -1.51976 -3.50867
166 1 -1.69103 0.0646362 0.299805 -3.46006
167 1 -3.4552 2.07482 0.332643 -3.44962
168 1 -0.00670428 -0.0136433 44.9652 -3.50927
169 1 1.83498 1.69959 -1.53006 -3.50917
170 1 1.72704 -0.0744921 0.162817 -3.4753
171 1 -0.0279545 1.66275 0.370667 -3.45943
172 1 3.60714 0.0143894 44.9957 -3.49467
173 1 5.34291 1.90215 -1.49702 -3.45938
174 1 5.36141 -0.105844 0.363978 -3.48446
175 1 3.56429 1.63399 0.378696 -3.52038
176 1 7.02151 -0.0392915 -1.47964 -3.51129
177 1 8.79389 1.80153 44.9147 -3.50434
178 1 8.92835 -0.184088 0.317851 -3.48864
179 1 7.12828 1.80325 0.36245 -3.49666
180 1 10.6108 -0.0886865 -1.55054 -3.49332
181 1 12.412 1.51719 44.9417 -3.44519
182 1 12.4939 0.0301109 0.468146 -3.51322
183 1 10.6582 1.58884 0.446973 -3.46094
184 1 14.32 -0.0484124 -1.59136 -3.43418
185 1 15.9241 1.76952 44.8535 -3.10584
186 1 16.0107 -0.069521 0.281433 -3.09834
187 1 14.2111 1.92804 0.215694 -3.37749
188 1 17.4055 0.0954592 44.2498 -2.43743
189 1 -15.9031 4.98093 44.7423 -2.96308
190 1 -15.9014 3.53347 0.284915 -3.02673
191 1 -14.0053 3.55258 44.8949 -3.41861
192 1 -12.4024 5.34498 44.7739 -3.47198
193 1 -12.466 3.48671 0.365417 -3.42695
194 1 -14.1162 5.34315 0.231228 -3.43287
195 1 -10.6596 3.68009 -1.61308 -3.51948
196 1 -8.86177 5.47641 44.9344 -3.47646
197 1 -8.81277 3.70277 0.140089 -3.51274
198 1 -10.7813 5.24752 0.329649 -3.50617
199 1 -7.12565 3.79941 44.8742 -3.47626
200 1 -5.19515 5.35727 44.944 -3.46363
201 1 -5.25225 3.64351 0.190839 -3.49726
202 1 -7.04162 5.48672 0.494282 -3.49134
203 1 -3.4582 3.69252 44.8265 -3.46159
204 1 -1.64046 5.36749 -1.60302 -3.50351
205 1 -1.72685 3.57919 0.258939 -3.46147
206 1 -3.38351 5.48494 0.441491 -3.49907
207 1 0.0386537 3.60732 -1.51395 -3.50387
208 1 1.8242 5.38893 -1.50757 -3.52799
209 1 1.86141 3.52482 0.194083 -3.52669
210 1 0.0964593 5.32746 0.507434 -3.45481
211 1 3.69172 3.53941 -1.601 -3.47205
212 1 5.29945 5.36572 -1.52942 -3.4959
213 1 5.29709 3.39283 0.416301 -3.47759
214 1 3.71914 5.30006 0.335331 -3.48672
215 1 7.11183 3.6169 45.0055 -3.47489
216 1 8.84285 5.23253 -1.5723 -3.46433
217 1 8.9109 3.51397 0.477047 -3.49935
218 1 6.98674 5.35152 0.367063 -3.51721
219 1 10.6406 3.58389 -1.46413 -3.4894
220 1 12.307 5.38216 44.8105 -3.46449
221 1 12.2472 3.4094 0.415406 -3.45228
222 1 10.6152 5.40958 0.494981 -3.50304
223 1 13.9409 3.3971 45.0271 -3.428
224 1 15.7317 5.22699 -1.62581 -3.01465
225 1 15.9187 3.50073 0.152784 -2.98501
226 1 14.0241 5.20186 0.284373 -3.45566
227 1 -15.9502 6.92577 0.328398 -2.66224
228 1 -14.3245 7.04847 44.9594 -3.34575
229 1 -12.4582 8.7061 44.8709 -3.35649
230 1 -12.5867 7.165 0.412069 -3.42063
231 1 -14.306 8.89276 0.204882 -3.08972
232 1 -10.6478 7.1292 44.8917 -3.4724
233 1 -8.73984 8.80651 -1.56024 -3.4608
234 1 -8.97941 7.04249 0.351381 -3.46066
235 1 -10.6799 8.73273 0.217716 -3.49704
236 1 -7.04673 7.11781 44.931 -3.49905
237 1 -5.24478 8.98449 -1.55865 -3.51143
238 1 -5.19768 7.14814 0.32902 -3.48233
239 1 -7.08557 8.73829 0.320845 -3.50335
240 1 -3.46956 7.0603 44.9183 -3.50872
241 1 -1.77745 8.97363 -1.55926 -3.47925
242 1 -1.59181 7.06103 0.397618 -3.45953
243 1 -3.44438 8.7968 0.260772 -3.48474
244 1 0.0822181 7.20512 -1.52569 -3.52447
245 1 1.83295 8.86884 -1.52538 -3.42059
246 1 1.91113 7.05546 0.446009 -3.5077
247 1 0.100518 8.76562 0.538633 -3.48881
248 1 3.49564 7.16628 -1.53787 -3.47614
249 1 5.35299 8.89578 44.9167 -3.51753
250 1 5.25182 7.17992 0.180142 -3.49011
251 1 3.50898 8.9381 0.33696 -3.50562
252 1 7.18878 7.0583 -1.64754 -3.49026
253 1 8.80586 8.88901 44.9187 -3.51558
254 1 8.73466 7.16505 0.403311 -3.49157
255 1 7.05425 8.95438 0.134261 -3.49485
256 1 10.5218 7.09581 44.9339 -3.47213
257 1 12.0954 8.82959 44.8294 -3.42922
258 1 12.411 7.14595 0.301285 -3.4683
259 1 10.5251 8.78043 0.279827 -3.4774
260 1 13.927 7.1752 44.7567 -3.33252
261 1 15.8976 6.86667 0.147968 -2.64884
262 1 14.1711 8.81946 0.337568 -3.03137
263 1 -13.751 10.5459 44.9813 -2.70315
264 1 -11.9536 12.3255 44.9284 -2.88615
265 1 -12.2561 10.7522 0.157492 -3.27607
266 1 -10.5218 10.4294 44.949 -3.48625
267 1 -8.75771 12.3538 -1.53836 -3.42221
268 1 -8.73206 10.5227 0.253864 -3.48624
269 1 -10.4034 12.4168 0.248538 -3.29876
270 1 -7.05853 10.6414 44.8348 -3.4038
271 1 -5.43786 12.2865 44.8028 -3.4501
272 1 -5.24702 10.6236 0.428048 -3.53182
273 1 -7.09562 12.2449 0.166621 -3.43568
274 1 -3.56908 10.6462 -1.55243 -3.45988
275 1 -1.71882 12.3347 -1.63617 -3.51122
276 1 -1.67627 10.6459 0.542823 -3.51205
277 1 -3.46063 12.4611 0.218759 -3.46713
278 1 0.0677416 10.4979 44.9295 -3.45726
279 1 1.69469 12.433 44.9136 -3.52557
280 1 1.68717 10.7148 0.339971 -3.51137
281 1 -0.0822359 12.5776 0.271989 -3.47246
282 1 3.50683 10.5486 44.9751 -3.51521
283 1 5.20985 12.4024 -1.59382 -3.48106
284 1 5.28338 10.6825 0.371317 -3.4939
285 1 3.42585 12.3726 0.253053 -3.48615
286 1 7.01441 10.7632 44.8684 -3.48743
287 1 8.74226 12.4233 44.8727 -3.45061
288 1 8.7598 10.7245 0.288813 -3.52496
289 1 6.8955 12.4186 0.225792 -3.46878
290 1 10.5192 10.7565 44.7403 -3.41883
291 1 12.2632 12.3349 45.0175 -2.83277
292 1 12.3528 10.5593 0.283231 -3.32021
293 1 10.6068 12.3724 0.166194 -3.28202
294 1 13.9025 10.5009 44.6901 -2.7236
295 1 -10.1656 14.2315 44.8419 -2.69949
296 1 -8.70793 14.1868 0.182546 -3.09852
297 1 -6.98059 14.2657 44.8465 -3.31148
298 1 -5.09183 15.8195 -1.52627 -2.98373
299 1 -5.40721 13.9756 0.225275 -3.44141
300 1 -6.91211 15.756 0.232537 -2.73731
301 1 -3.4624 14.1433 44.9071 -3.43976
302 1 -1.9677 16.2783 44.728 -3.04347
303 1 -1.7719 14.3121 0.157751 -3.43555
304 1 -3.55971 16.0528 0.241991 -2.95653
305 1 -0.0115617 14.4004 44.9 -3.51569
306 1 1.85844 15.9647 -1.53942 -3.12207
307 1 1.82018 14.175 0.205415 -3.46613
308 1 0.231268 16.1333 0.282401 -3.16562
309 1 3.49225 14.1668 44.9584 -3.43023
310 1 5.22188 16.0816 -1.44306 -2.93835
311 1 5.15105 14.158 0.242663 -3.45772
312 1 3.36047 16.0803 0.396327 -3.01447
313 1 7.09978 14.2677 44.8528 -3.33142
314 1 8.7465 13.9335 0.259238 -3.09377
315 1 7.17786 15.664 0.268227 -2.69913
316 1 10.6493 14.2255 44.9302 -2.62931
317 1 0.0807111 17.5888 44.8651 -2.3824
318 1 -5.41319 -15.9965 2.35548 -2.98715
319 1 -6.97345 -15.8877 4.46276 -2.7288
320 1 -2.00968 -15.8814 2.2624 -3.10599
321 1 -3.7157 -15.8724 4.2044 -3.06426
322 1 -0.232693 -17.4021 2.27479 -2.39892
323 1 1.76836 -16.0749 2.39659 -3.10546
324 1 -0.115136 -16.0993 4.16656 -3.16069
325 1 5.252 -15.8005 2.36051 -2.98722
326 1 3.54509 -15.9702 4.29256 -3.02998
327 1 6.88061 -15.8292 4.32644 -2.69135
328 1 -12.1798 -12.3505 2.24457 -2.87096
329 1 -10.6442 -14.1453 2.50068 -2.63452
330 1 -8.9324 -12.5109 2.26964 -3.47237
331 1 -8.90579 -14.2391 4.31857 -3.10796
332 1 -10.612 -12.5481 4.32888 -3.29334
333 1 -7.16687 -14.2933 2.37459 -3.35386
334 1 -5.33138 -12.4019 2.31197 -3.48042
335 1 -5.45501 -14.0662 4.21133 -3.42904
336 1 -7.18412 -12.4332 4.12381 -3.48222
337 1 -3.67948 -14.1128 2.41662 -3.45655
338 1 -1.74178 -12.6041 2.40962 -3.49318
339 1 -1.88894 -14.2246 4.27812 -3.45024
340 1 -3.46163 -12.4125 4.4213 -3.48374
341 1 -0.0255763 -14.4005 2.2681 -3.50997
342 1 1.68465 -12.5606 2.39066 -3.46718
343 1 1.81712 -14.2552 4.23858 -3.43958
344 1 0.00309064 -12.6209 4.20679 -3.48925
345 1 3.45547 -14.1237 2.36619 -3.45243
346 1 5.23796 -12.415 2.20692 -3.48704
347 1 5.16395 -14.1217 4.29926 -3.43528
348 1 3.4439 -12.4093 4.23539 -3.49027
349 1 7.0141 -13.9748 2.26223 -3.33465
350 1 8.77652 -12.2331 2.32276 -3.49183
351 1 8.9267 -14.1428 4.0813 -3.04929
352 1 7.01153 -12.4276 4.35416 -3.50108
353 1 10.6278 -13.9692 2.10256 -2.6436
354 1 12.1437 -12.1246 2.21607 -2.90768
355 1 10.6789 -12.1456 4.25456 -3.31263
356 1 -13.9832 -10.5023 2.1291 -2.72516
357 1 -12.3922 -8.81447 2.26578 -3.39212
358 1 -12.4062 -10.6384 4.19668 -3.32124
359 1 -14.0639 -8.8917 4.0492 -3.10014
360 1 -10.6305 -10.5672 2.36611 -3.48055
361 1 -8.77403 -8.84784 2.21022 -3.50197
362 1 -8.87682 -10.6519 4.2362 -3.51701
363 1 -10.7712 -8.75384 4.11963 -3.49688
364 1 -7.13823 -10.7473 2.16271 -3.47217
365 1 -5.45901 -9.04002 2.24226 -3.51333
366 1 -5.27693 -10.7094 4.15893 -3.51145
367 1 -7.13341 -8.85969 4.0397 -3.49389
368 1 -3.43173 -10.771 2.27821 -3.52484
369 1 -1.75237 -8.80551 2.31865 -3.51155
370 1 -1.64359 -10.7574 4.24348 -3.53315
371 1 -3.51772 -9.03878 4.14139 -3.5009
372 1 -0.022444 -10.6495 2.30301 -3.50179
373 1 1.63903 -8.87899 2.32134 -3.51493
374 1 1.67146 -10.5953 4.31615 -3.53717
375 1 -0.0540842 -8.78714 4.27757 -3.52425
376 1 3.3286 -10.7832 2.36634 -3.49601
377 1 5.08788 -9.02194 2.35699 -3.47671
378 1 5.25043 -10.6647 4.25598 -3.51109
379 1 3.48579 -8.8849 4.23776 -3.48912
380 1 6.94826 -10.5137 2.31844 -3.48789
381 1 8.66118 -8.77724 2.21653 -3.44795
382 1 8.70517 -10.4628 4.18518 -3.52618
383 1 6.8987 -8.82601 4.23041 -3.49055
384 1 10.484 -10.3919 2.34623 -3.50217
385 1 12.4068 -8.72166 2.31376 -3.42241
386 1 12.4954 -10.5448 4.14096 -3.28459
387 1 10.6382 -8.84895 4.32531 -3.45976
388 1 14.0268 -10.3841 2.11976 -2.72728
389 1 14.3666 -8.7537 4.19568 -3.09758
390 1 -15.5708 -5.24064 2.301 -2.97829
391 1 -15.7097 -6.88738 4.14438 -2.72359
392 1 -14.0547 -7.02233 2.2226 -3.29893
393 1 -12.2488 -5.23065 2.51064 -3.50838
394 1 -12.5218 -6.97829 4.18235 -3.48221
395 1 -14.1259 -5.15176 4.30053 -3.39877
396 1 -10.4884 -6.91069 2.31011 -3.47869
397 1 -8.75717 -5.21436 2.33239 -3.43918
398 1 -8.982 -7.05384 4.22821 -3.48047
399 1 -10.5082 -5.20656 4.42246 -3.46563
400 1 -7.04984 -7.01354 2.28928 -3.46566
401 1 -5.30844 -5.48242 2.37499 -3.45301
402 1 -5.09366 -7.11575 4.22931 -3.47715
403 1 -7.05394 -5.35012 4.20794 -3.53688
404 1 -3.60192 -7.19702 2.35829 -3.47215
405 1 -1.82355 -5.20315 2.27307 -3.49178
406 1 -1.89588 -7.08836 4.27936 -3.49566
407 1 -3.53919 -5.26674 4.3089 -3.48026
408 1 0.0216275 -6.97195 2.3717 -3.50306
409 1 1.72932 -5.25648 2.28902 -3.47327
410 1 1.85807 -7.02349 4.36177 -3.52644
411 1 -0.123016 -5.42132 4.26304 -3.47015
412 1 3.37547 -7.06795 2.3549 -3.50319
413 1 5.10423 -5.27989 2.33114 -3.47666
414 1 5.12163 -7.08671 4.20658 -3.5059
415 1 3.64312 -5.08102 4.27912 -3.47729
416 1 6.90389 -7.00967 2.42726 -3.53697
417 1 8.91918 -5.28192 2.1748 -3.45052
418 1 8.70389 -7.19194 4.38764 -3.45893
419 1 7.00667 -5.32195 4.33343 -3.53855
420 1 10.4908 -7.22023 2.48863 -3.47645
421 1 12.3115 -5.51267 2.35047 -3.50796
422 1 12.2971 -7.11174 4.34337 -3.47784
423 1 10.4611 -5.37397 4.21992 -3.50293
424 1 14.1874 -7.10999 2.23227 -3.35093
425 1 15.8641 -5.3113 2.31498 -3.00269
426 1 15.9194 -6.80411 4.28782 -2.75859
427 1 14.0023 -5.29752 4.21036 -3.44394
428 1 -15.818 -1.81938 1.94815 -3.12963
429 1 -15.9746 -3.28894 4.03543 -3.01463
430 1 -14.0153 -3.36799 2.12484 -3.44311
431 1 -12.2464 -1.56427 2.17274 -3.53087
432 1 -12.2328 -3.36535 4.14832 -3.51509
433 1 -14.0662 -1.69623 4.10685 -3.48019
434 1 -10.4306 -3.40325 2.34818 -3.52498
435 1 -8.72423 -1.59657 2.27622 -3.43502
436 1 -8.82912 -3.4195 4.27773 -3.51771
437 1 -10.4632 -1.61487 4.13457 -3.48405
438 1 -7.13624 -3.4647 2.30882 -3.49756
439 1 -5.3718 -1.57982 2.29167 -3.52189
440 1 -5.38433 -3.5396 4.1821 -3.50905
441 1 -7.03877 -1.63105 4.34962 -3.53234
442 1 -3.65853 -3.38867 2.44781 -3.50058
443 1 -1.8771 -1.67367 2.39985 -3.47478
444 1 -1.90597 -3.44111 4.26532 -3.53015
445 1 -3.72768 -1.70549 4.30051 -3.53674
446 1 -0.0277905 -3.52229 2.45154 -3.51136
447 1 1.61792 -1.65943 2.43626 -3.45649
448 1 1.61356 -3.6113 4.29504 -3.49461
449 1 -0.0773926 -1.78778 4.29079 -3.51653
450 1 3.44341 -3.4969 2.31257 -3.49645
451 1 5.26183 -1.83275 2.36871 -3.47062
452 1 5.29439 -3.36146 4.27551 -3.44058
453 1 3.2551 -1.82852 4.16815 -3.48119
454 1 7.05924 -3.60813 2.3365 -3.52597
455 1 8.95903 -1.82542 2.20588 -3.52431
456 1 8.88384 -3.61687 4.03985 -3.46293
457 1 7.09591 -1.82277 4.31558 -3.47728
458 1 10.7327 -3.69671 2.31047 -3.44676
459 1 12.3458 -1.81048 2.21999 -3.48705
460 1 12.223 -3.54102 4.26176 -3.4976
461 1 10.6548 -1.7898 4.26619 -3.48016
462 1 14.0524 -3.67257 2.39218 -3.47473
463 1 15.9837 -2.07942 2.43134 -3.07791
464 1 15.9031 -3.78713 4.28246 -3.0599
465 1 14.1766 -1.89971 4.1979 -3.47396
466 1 -17.4696 0.0057658 2.27421 -2.52048
467 1 -15.9222 1.75057 2.13116 -3.12639
468 1 -16.2226 -0.533097 4.38584 -3.07777
469 1 -14.2308 0.0679896 2.21231 -3.47921
470 1 -12.4049 1.75326 2.27653 -3.51661
471 1 -12.3031 0.0634892 4.12903 -3.46617
472 1 -14.1888 1.53318 4.22795 -3.45622
473 1 -10.4413 0.0621466 2.15505 -3.49199
474 1 -8.77935 2.12402 2.25711 -3.51483
475 1 -8.84619 0.180935 4.37646 -3.43417
476 1 -10.581 1.76322 4.08444 -3.49356
477 1 -7.16012 0.14238 2.2819 -3.47005
478 1 -5.31339 1.7249 2.1286 -3.45335
479 1 -5.35529 0.28687 4.36852 -3.43939
480 1 -7.10594 1.94828 4.07643 -3.51123
481 1 -3.56003 0.0996046 2.32173 -3.43207
482 1 -1.71823 1.99293 2.18181 -3.52542
483 1 -1.90103 0.0263093 4.23554 -3.52532
484 1 -3.66702 1.83857 3.93672 -3.4148
485 1 -0.114306 0.00801414 2.4159 -3.47372
486 1 1.74237 1.64545 2.13994 -3.48607
487 1 1.71885 0.146037 4.23753 -3.52075
488 1 -0.0479695 1.90593 4.14923 -3.48149
489 1 3.48581 -0.115249 2.34286 -3.48829
490 1 5.44099 1.69059 2.3749 -3.50076
491 1 5.17193 -0.0671377 4.37372 -3.54299
492 1 3.51612 1.86894 4.22631 -3.46269
493 1 7.02816 -0.214588 2.37897 -3.48148
494 1 8.78007 1.63511 2.28244 -3.49858
495 1 8.89025 -0.101972 4.28742 -3.47445
496 1 7.07234 1.5305 4.20772 -3.48812
497 1 10.5359 0.0447451 2.37915 -3.46428
498 1 12.4272 1.76162 2.33687 -3.51352
499 1 12.4468 -0.11251 4.19339 -3.52265
500 1 10.6302 1.60869 4.27768 -3.48017
501 1 14.1263 -0.0404972 2.40973 -3.46989
502 1 15.7629 1.85154 2.30389 -3.1092
503 1 15.853 -0.219743 4.28399 -3.14442
504 1 14.1143 1.86209 4.34503 -3.42428
505 1 17.2028 -0.075805 2.28228 -2.38589
506 1 -15.8658 5.1234 2.20867 -2.96842
507 1 -15.7525 3.51499 4.31492 -3.11171
508 1 -14.1324 3.52288 2.26578 -3.43311
509 1 -12.4747 5.39005 2.18013 -3.50834
510 1 -12.5299 3.44328 4.15434 -3.53874
511 1 -14.1206 5.41689 4.10412 -3.39224
512 1 -10.6882 3.65917 2.19516 -3.46112
513 1 -8.87403 5.1809 2.21796 -3.49827
514 1 -8.95504 3.68039 4.27061 -3.4693
515 1 -10.7657 5.36637 4.16286 -3.52615
516 1 -6.85187 3.63308 2.07343 -3.44164
517 1 -5.31244 5.46421 2.3471 -3.45733
518 1 -5.31868 3.78314 4.13249 -3.47873
519 1 -7.17859 5.41032 4.12248 -3.51518
520 1 -3.58979 3.70662 2.20467 -3.50947
521 1 -1.58326 5.12364 2.27086 -3.52463
522 1 -1.79208 3.44106 4.14579 -3.45188
523 1 -3.45246 5.30267 4.23272 -3.4706
524 1 0.298068 3.51002 2.10903 -3.42219
525 1 1.84339 5.31064 2.16813 -3.46731
526 1 1.81751 3.51104 4.09229 -3.42595
527 1 0.138007 5.12908 4.16628 -3.49231
528 1 3.55808 3.43148 2.25946 -3.54752
529 1 5.35449 5.30554 2.11253 -3.45611
530 1 5.38309 3.42065 4.05914 -3.46767
531 1 3.6368 5.18174 4.16078 -3.51331
532 1 7.21177 3.56069 2.25076 -3.47346
533 1 8.83423 5.29123 2.44043 -3.47968
534 1 8.96884 3.3761 4.21505 -3.5132
535 1 7.0284 5.34535 4.15439 -3.48766
536 1 10.6416 3.43364 2.28931 -3.4997
537 1 12.2382 5.33234 2.32514 -3.48978
538 1 12.2958 3.44353 4.25939 -3.50455
539 1 10.5829 5.47621 4.2858 -3.48091
540 1 14.0592 3.70862 2.12425 -3.39531
541 1 15.979 5.2189 2.04887 -2.93358
542 1 15.8919 3.57616 4.20785 -2.96841
543 1 14.0947 5.26418 3.99458 -3.3824
544 1 -15.7123 7.05649 4.22395 -2.68215
545 1 -14.3599 7.34759 2.28385 -3.25273
546 1 -12.5307 8.90537 1.99217 -3.3864
547 1 -12.4448 7.19706 3.96008 -3.45816
548 1 -14.1339 8.92375 4.03505 -3.06839
549 1 -10.4635 7.0199 2.17648 -3.47192
550 1 -8.84224 8.84777 2.17884 -3.46306
551 1 -8.92922 7.1422 4.23261 -3.49592
552 1 -10.7078 8.88499 4.16163 -3.51531
553 1 -7.13014 7.24697 2.33639 -3.46389
554 1 -5.31795 8.84893 2.3267 -3.49626
555 1 -5.14676 7.17651 4.08537 -3.47094
556 1 -7.0538 8.73113 4.35739 -3.50297
557 1 -3.328 7.17031 2.25513 -3.43406
558 1 -1.82305 8.83775 2.41303 -3.42113
559 1 -1.59567 6.8702 4.17252 -3.45751
560 1 -3.5117 8.96297 4.35746 -3.46505
561 1 0.0913639 7.00172 2.3923 -3.50448
562 1 1.80032 8.75477 2.34064 -3.49974
563 1 1.92585 6.93808 4.32299 -3.50221
564 1 0.0584008 8.74135 4.27786 -3.53084
565 1 3.67202 6.99599 2.30467 -3.49871
566 1 5.23874 8.86196 2.23494 -3.50377
567 1 5.35457 7.06952 4.28018 -3.50757
568 1 3.41233 8.75959 4.24441 -3.46346
569 1 6.99463 7.1846 2.39955 -3.48726
570 1 8.71518 9.07528 2.25308 -3.42785
571 1 8.77573 7.11426 4.11556 -3.47807
572 1 7.0966 8.92464 4.29678 -3.50524
573 1 10.5136 7.28195 2.22161 -3.50761
574 1 12.3444 8.90862 1.98511 -3.36891
575 1 12.3831 7.17614 4.20736 -3.49623
576 1 10.6508 8.92444 4.21585 -3.5265
577 1 14.1319 7.15028 2.24382 -3.34736
578 1 15.6532 6.95619 4.18865 -2.69349
579 1 14.045 9.00858 4.19526 -3.07756
580 1 -14.0548 10.7845 2.11242 -2.66357
581 1 -12.0247 12.4817 2.06235 -2.87578
582 1 -12.3682 10.8013 3.93269 -3.27987
583 1 -10.6447 10.5281 2.1235 -3.47296
584 1 -8.8115 12.2319 2.16674 -3.46827
585 1 -8.73668 10.5485 4.16134 -3.49409
586 1 -10.4011 12.2439 4.08989 -3.28648
587 1 -7.02685 10.5912 2.39909 -3.45733
588 1 -5.44511 12.4158 2.37233 -3.43264
589 1 -5.39273 10.6531 4.30855 -3.4913
590 1 -7.04267 12.3183 4.26191 -3.42923
591 1 -3.4674 10.6741 2.44686 -3.49815
592 1 -1.5932 12.5117 2.33748 -3.51887
593 1 -1.63004 10.5962 4.20033 -3.46381
594 1 -3.5539 12.3763 4.12131 -3.49628
595 1 0.0169497 10.5861 2.40183 -3.48094
596 1 1.58646 12.4951 2.34013 -3.52239
597 1 1.74857 10.6076 4.30028 -3.52778
598 1 -0.0587491 12.3811 4.33657 -3.43219
599 1 3.39269 10.6406 2.23409 -3.52666
600 1 5.27393 12.4075 2.25684 -3.51779
601 1 5.1076 10.5738 4.21192 -3.51352
602 1 3.46391 12.3793 4.20984 -3.5146
603 1 7.03456 10.6842 2.23017 -3.41274
604 1 8.70386 12.2662 2.16572 -3.40601
605 1 8.83422 10.6051 4.25166 -3.5009
606 1 6.93941 12.2462 4.27894 -3.4745
607 1 10.53 10.5114 2.13899 -3.43359
608 1 12.1227 12.3056 2.17117 -2.89462
609 1 12.4096 10.7586 4.04878 -3.26867
610 1 10.583 12.3703 4.15144 -3.3038
611 1 14.1242 10.7701 2.18083 -2.62204
612 1 -10.2305 14.1547 2.33843 -2.74338
613 1 -8.76954 14.1967 4.31352 -3.10703
614 1 -7.1912 14.1733 2.20193 -3.39627
615 1 -5.36343 15.8871 2.19272 -2.99555
616 1 -5.2643 14.0799 4.12985 -3.41037
617 1 -6.8239 15.8752 4.18988 -2.73303
618 1 -3.71955 14.0419 2.15948 -3.44981
619 1 -1.95402 15.8582 2.18147 -3.09164
620 1 -1.82264 14.2241 4.06997 -3.47673
621 1 -3.67699 15.9622 4.04456 -3.03229
622 1 -0.0274398 14.5844 2.20012 -3.35062
623 1 1.79736 15.9871 2.18382 -3.06583
624 1 1.61475 14.2344 4.24611 -3.48701
625 1 -0.0782138 16.0715 4.07865 -3.18218
626 1 3.38526 14.1368 2.21281 -3.43575
627 1 5.18064 15.7133 2.09716 -3.0104
628 1 5.3445 14.0925 4.19921 -3.393
629 1 3.57337 15.7948 4.00215 -3.03777
630 1 6.97289 14.0637 2.33087 -3.35798
631 1 8.56909 13.9393 4.29094 -3.15591
632 1 6.93563 15.8258 4.17145 -2.69377
633 1 10.1885 14.0999 2.4436 -2.70223
634 1 -0.221663 17.5662 2.09681 -2.3818
635 1 -5.41544 -16.1734 6.2063 -2.84195
636 1 -6.81452 -15.7611 8.18269 -2.79525
637 1 -1.9947 -15.9742 6.06593 -3.04223
638 1 -3.95498 -15.8543 8.18753 -3.02672
639 1 -0.178379 -17.3212 6.18898 -2.39663
640 1 1.84436 -16.0629 6.18517 -3.06274
641 1 -0.0518608 -15.9317 8.12741 -3.16342
642 1 5.1574 -15.7982 6.18641 -3.02136
643 1 3.41971 -15.8962 8.07126 -3.00614
644 1 6.76694 -15.7642 8.03597 -2.69109
645 1 -12.3771 -12.2726 6.14685 -2.83383
646 1 -10.372 -14.2037 6.40987 -2.68657
647 1 -8.84238 -12.3056 6.06637 -3.45703
648 1 -8.85757 -14.1528 8.25097 -3.06754
649 1 -10.6257 -12.3291 8.09622 -3.34685
650 1 -7.08885 -14.1574 6.23555 -3.41015
651 1 -5.30778 -12.3886 6.19144 -3.45975
652 1 -5.35854 -13.9181 8.36978 -3.35777
653 1 -7.16216 -12.333 8.12517 -3.50767
654 1 -3.75381 -14.1748 6.07086 -3.43759
655 1 -1.66222 -12.5122 6.1762 -3.52996
656 1 -1.88641 -14.3476 8.13745 -3.42083
657 1 -3.37387 -12.3704 8.06319 -3.47832
658 1 0.0415908 -14.3794 6.19807 -3.51661
659 1 1.64337 -12.5756 6.06882 -3.45639
660 1 1.70786 -14.1806 8.13669 -3.45169
661 1 0.0136811 -12.392 8.22166 -3.52946
662 1 3.29256 -14.2403 6.2036 -3.3646
663 1 5.06488 -12.4375 6.14906 -3.51754
664 1 5.17847 -14.074 8.03579 -3.39611
665 1 3.42177 -12.3262 8.17702 -3.49321
666 1 7.13924 -14.1567 6.28321 -3.28537
667 1 8.75554 -12.4638 6.11365 -3.35361
668 1 8.82237 -14.1076 8.18673 -3.08373
669 1 6.92599 -12.3839 8.07606 -3.47289
670 1 10.6098 -13.8521 6.16683 -2.67532
671 1 12.3714 -12.0723 5.97846 -2.86473
672 1 10.5733 -12.2036 8.05953 -3.3241
673 1 -14.0217 -10.4424 6.3174 -2.71276
674 1 -12.3347 -8.67415 6.03954 -3.46137
675 1 -12.4559 -10.5763 8.12712 -3.31105
676 1 -14.1874 -8.79598 8.09139 -3.07109
677 1 -10.6275 -10.5436 6.1661 -3.48446
678 1 -8.89461 -8.81981 6.04447 -3.47808
679 1 -8.88911 -10.4728 7.9457 -3.47081
680 1 -10.753 -8.82866 8.05329 -3.48198
681 1 -6.95224 -10.6537 6.01429 -3.4918
682 1 -5.19728 -8.90643 6.12803 -3.47274
683 1 -5.10847 -10.7907 8.09647 -3.48419
684 1 -7.03544 -8.98925 7.91842 -3.49719
685 1 -3.37952 -10.5771 6.1578 -3.49376
686 1 -1.82016 -8.81037 6.06477 -3.47845
687 1 -1.68413 -10.561 8.04201 -3.44087
688 1 -3.39509 -8.87326 8.0348 -3.4945
689 1 -0.0100274 -10.6928 6.27697 -3.49501
690 1 1.62721 -8.84169 6.20087 -3.51872
691 1 1.70908 -10.4642 8.15854 -3.49061
692 1 -0.0788133 -8.83765 8.10912 -3.47262
693 1 3.40369 -10.6493 6.27568 -3.51072
694 1 5.14988 -8.87289 6.21447 -3.5079
695 1 5.31872 -10.69 8.20196 -3.4704
696 1 3.56384 -8.70259 8.0811 -3.49081
697 1 7.03163 -10.5396 6.33003 -3.51189
698 1 8.8326 -8.71254 6.14738 -3.42282
699 1 8.76179 -10.61 8.0713 -3.47882
700 1 6.96525 -8.82802 8.02785 -3.50392
701 1 10.3151 -10.5554 6.09866 -3.44357
702 1 12.3522 -8.83402 6.05266 -3.47798
703 1 12.5658 -10.5403 7.99795 -3.32488
704 1 10.5238 -8.90034 8.11036 -3.51202
705 1 14.2558 -10.4903 6.01567 -2.68118
706 1 14.4573 -8.7078 7.88671 -3.07187
707 1 -15.8302 -5.14975 6.10292 -2.98593
708 1 -15.8305 -6.88424 8.26999 -2.69569
709 1 -14.3261 -7.12632 6.0996 -3.33212
710 1 -12.4647 -5.26902 6.12228 -3.51031
711 1 -12.4583 -7.18077 8.07589 -3.45734
712 1 -14.1186 -5.31862 7.87417 -3.36815
713 1 -10.6273 -6.93526 6.18501 -3.45917
714 1 -8.68191 -5.40797 6.0861 -3.47461
715 1 -8.83386 -7.20968 7.78206 -3.4802
716 1 -10.7325 -5.38023 8.09417 -3.49144
717 1 -6.94713 -7.3172 5.9475 -3.48904
718 1 -5.23284 -5.39843 6.15039 -3.49622
719 1 -5.19042 -7.21703 8.17029 -3.47634
720 1 -6.91179 -5.50184 7.91032 -3.4882
721 1 -3.57031 -7.11591 6.26755 -3.46268
722 1 -2.0233 -5.22586 6.24429 -3.48428
723 1 -1.74236 -6.99972 8.09271 -3.45712
724 1 -3.64572 -5.3458 8.19327 -3.51237
725 1 -0.152483 -6.97501 6.01627 -3.47943
726 1 1.69403 -5.2525 6.22961 -3.48396
727 1 1.70279 -7.07994 8.01387 -3.52837
728 1 -0.146515 -5.37897 8.10156 -3.45875
729 1 3.48948 -6.91086 6.13284 -3.47397
730 1 5.25871 -5.31629 6.26172 -3.51156
731 1 5.22695 -7.00393 8.1458 -3.48586
732 1 3.49034 -5.21753 8.17068 -3.53415
733 1 6.9489 -7.17477 6.17662 -3.49347
734 1 8.69978 -5.35777 6.2092 -3.52452
735 1 8.84407 -7.08288 8.25925 -3.51284
736 1 7.05863 -5.24573 8.0887 -3.51097
737 1 10.6396 -7.048 6.29731 -3.50814
738 1 12.2922 -5.30639 6.27848 -3.45774
739 1 12.4554 -7.16514 8.10454 -3.50573
740 1 10.6032 -5.26149 8.16156 -3.49399
741 1 14.1458 -6.95799 6.10553 -3.3922
742 1 15.9627 -5.18458 6.27813 -2.99618