ITEM: TIMESTEP
194000
ITEM: NUMBER OF ATOMS
3804
ITEM: BOX BOUNDS ss ss pp
-1.7567869559462661e+01 1.8198730344696166e+01
-1.6964095694371402e+01 1.6120774864960428e+01
-4.2078600000000002e+00 4.7587860000000006e+01
ITEM: ATOMS id type x y z c_peratom
1 1 -5.76058 -14.2612 -3.96948 -2.98078
2 1 -7.68083 -14.5288 -2.16122 -2.68787
3 1 -2.61046 -14.2617 -4.12589 -3.0438
4 1 -4.38983 -14.3985 -2.14844 -2.82536
5 1 -0.236709 -15.0789 -3.98618 -2.69577
6 1 1.47343 -15.2098 46.0348 -2.79262
7 1 -0.285083 -13.7327 -1.75622 -3.19081
8 1 5.60796 -13.9939 47.1841 -2.8467
9 1 4.11675 -14.2407 -2.71587 -2.94077
10 1 6.32506 -13.6672 -0.174449 -2.78632
11 1 -13.0017 -10.7805 -3.78284 -2.81883
12 1 -11.1764 -12.3947 -3.9782 -2.71258
13 1 -9.42687 -10.7843 -3.74946 -3.45751
14 1 -9.6644 -12.8096 -1.92618 -3.07302
15 1 -11.2963 -10.9117 -1.76987 -3.3214
16 1 -7.82082 -12.7407 -3.82916 -3.33407
17 1 -6.09456 -10.858 -3.70977 -3.48652
18 1 -6.12923 -12.7396 -2.07431 -3.37071
19 1 -7.81857 -10.9732 -1.8683 -3.49997
20 1 -4.03106 -12.2715 -4.00338 -3.4217
21 1 -2.40421 -12.4344 45.933 -3.44627
22 1 -2.54405 -12.8316 -1.85973 -3.29178
23 1 -4.22556 -10.9642 -1.86522 -3.48561
24 1 -0.972792 -14.3299 45.4886 -3.21521
25 1 0.922213 -12.5106 45.9509 -3.45445
26 1 1.61723 -13.6458 -3.55577 -3.29768
27 1 -0.658381 -12.5589 -4.14601 -3.36596
28 1 3.30595 -13.49 46.4418 -3.32991
29 1 5.23316 -11.7127 46.7751 -3.47021
30 1 5.95194 -12.7038 -2.58857 -3.21015
31 1 3.44123 -12.0028 -3.17374 -3.47582
32 1 7.74967 -12.4749 47.3639 -3.10217
33 1 9.62095 -10.7425 -4.01798 -3.18039
34 1 8.35179 -11.7173 0.216105 -2.948
35 1 7.65804 -10.94 -2.22563 -3.34574
36 1 10.0604 -11.4087 -1.63215 -2.70713
37 1 11.9316 -9.52615 -1.51191 -2.83437
38 1 10.3845 -10.0435 0.406722 -3.16598
39 1 -14.7279 -8.90009 -3.58887 -2.86004
40 1 -13.0358 -7.25662 -3.63679 -3.41423
41 1 -13.045 -9.17657 -1.71014 -3.34658
42 1 -14.8336 -7.30453 -1.77183 -3.22778
43 1 -11.3991 -9.02402 -3.62973 -3.47127
44 1 -9.50168 -7.39946 -3.39619 -3.52762
45 1 -9.47305 -9.23066 -1.59547 -3.45677
46 1 -11.1855 -7.515 -1.54486 -3.49859
47 1 -7.63709 -9.0622 -3.64528 -3.43124
48 1 -5.92082 -8.8348 46.2915 -3.49357
49 1 -5.83108 -9.23085 -1.5406 -3.48259
50 1 -7.71519 -7.4541 -1.33129 -3.47612
51 1 -4.1268 -10.5222 46.1097 -3.49488
52 1 -2.35359 -8.79219 46.5064 -3.42351
53 1 -2.24628 -10.7663 -3.72945 -3.4674
54 1 -4.11607 -9.17326 -3.47965 -3.51856
55 1 -0.597839 -10.5221 46.136 -3.49607
56 1 1.32521 -8.92743 46.4347 -3.51537
57 1 1.13308 -11.0782 -3.65862 -3.48881
58 1 -0.395669 -9.0072 -3.42981 -3.51197
59 1 2.80225 -10.8319 46.1875 -3.51126
60 1 4.89823 -9.16236 46.4595 -3.47595
61 1 5.32964 -10.2651 -2.75118 -3.4902
62 1 3.06212 -9.48103 -3.22664 -3.48789
63 1 7.09005 -10.0478 47.165 -3.4876
64 1 9.01437 -8.30911 47.3946 -3.48738
65 1 9.62484 -8.96886 -1.94917 -3.39985
66 1 7.22507 -8.30955 -2.5362 -3.44499
67 1 11.4251 -8.96389 -3.80488 -3.23113
68 1 13.0106 -7.11862 -3.67915 -3.23239
69 1 12.0275 -8.3498 0.779081 -3.24752
70 1 11.3296 -7.27482 -1.69069 -3.38183
71 1 13.6408 -7.95587 -1.11696 -2.70868
72 1 13.9425 -6.60446 0.932957 -3.06854
73 1 -17.2168 -4.78263 -3.94469 -2.68731
74 1 -16.7363 -5.76462 -1.5627 -2.91097
75 1 -14.8279 -5.38119 -3.61783 -3.43515
76 1 -13.1144 -3.65054 -3.27137 -3.51744
77 1 -12.9145 -5.75871 -1.72839 -3.41232
78 1 -14.7975 -4.11164 -1.42873 -3.54224
79 1 -11.1714 -5.48387 -3.39291 -3.50034
80 1 -9.41186 -5.43845 46.5429 -3.46877
81 1 -9.48459 -5.7051 -1.384 -3.49603
82 1 -11.4371 -4.01366 -1.35935 -3.40361
83 1 -7.7899 -7.15319 46.3279 -3.47336
84 1 -5.90225 -5.4464 46.5432 -3.49671
85 1 -6.06127 -7.30904 -3.33363 -3.5094
86 1 -7.8226 -5.54515 -3.25673 -3.48899
87 1 -4.19004 -7.24253 46.647 -3.47428
88 1 -2.35961 -5.63939 46.8322 -3.49184
89 1 -2.37433 -7.43424 -3.26837 -3.48141
90 1 -4.11933 -5.72599 -3.05961 -3.46933
91 1 -0.599546 -7.26144 46.6122 -3.44858
92 1 1.2964 -5.73579 46.9119 -3.49371
93 1 1.50342 -7.47826 -3.21427 -3.48342
94 1 -0.526934 -5.83047 -2.96875 -3.49145
95 1 3.30526 -7.33517 46.812 -3.48381
96 1 4.99448 -5.59219 46.8953 -3.46978
97 1 4.89246 -7.7932 -3.09737 -3.49376
98 1 3.29909 -5.86966 -2.94188 -3.50636
99 1 6.77292 -7.5332 46.9498 -3.47727
100 1 8.48387 -5.7248 46.9585 -3.45026
101 1 9.03235 -6.75413 -2.33562 -3.44067
102 1 6.58457 -6.02636 -2.85872 -3.45778
103 1 10.688 -6.44352 47.6734 -3.51122
104 1 12.5493 -4.66372 -3.93962 -3.49862
105 1 13.0849 -5.64185 -1.33383 -3.30139
106 1 10.8663 -4.86723 -2.09848 -3.49464
107 1 14.7816 -5.45921 -3.47299 -3.13569
108 1 16.6975 -3.61901 -3.01081 -2.80405
109 1 15.5046 -4.7848 1.3709 -2.72365
110 1 15.0615 -4.08712 -1.27775 -3.20376
111 1 -15.9175 -0.556983 47.6507 -3.10844
112 1 -17.2337 -3.41456 -1.88958 -2.83382
113 1 -15.4908 -3.02066 -3.70115 -3.32474
114 1 -13.8341 -2.88728 46.1187 -3.48506
115 1 -13.108 -2.28287 -1.14127 -3.49847
116 1 -15.4781 -1.45657 -1.71496 -3.33141
117 1 -11.3114 -3.69013 46.6988 -3.51597
118 1 -9.52529 -1.87747 47.007 -3.50353
119 1 -9.47307 -3.76719 -2.96002 -3.42072
120 1 -11.1262 -2.03671 -2.95916 -3.48717
121 1 -7.72478 -3.61984 46.8156 -3.5199
122 1 -5.71746 -2.08065 47.1311 -3.51627
123 1 -5.90575 -4.03216 -3.09986 -3.47216
124 1 -7.47163 -2.20045 -2.81673 -3.5166
125 1 -4.11024 -3.94733 47.109 -3.42974
126 1 -2.18257 -2.23101 47.1357 -3.50558
127 1 -2.24481 -4.04959 -2.93848 -3.52018
128 1 -4.01053 -2.27954 -2.78608 -3.50606
129 1 -0.48745 -3.96051 46.8596 -3.5065
130 1 1.39614 -2.35776 47.2217 -3.52442
131 1 1.31962 -4.27377 -2.88137 -3.47775
132 1 -0.306265 -2.5175 -2.66663 -3.49788
133 1 3.11709 -4.11329 47.0551 -3.49214
134 1 4.96549 -2.42053 47.3363 -3.48282
135 1 5.06148 -4.21319 -2.82462 -3.43841
136 1 3.09693 -2.52075 -2.76491 -3.53107
137 1 6.83282 -3.92405 47.1421 -3.43218
138 1 8.4191 -2.32087 47.44 -3.44162
139 1 8.52341 -4.24768 -2.69786 -3.54097
140 1 6.75479 -2.39791 -2.47951 -3.42667
141 1 10.1255 -4.05916 47.2331 -3.43244
142 1 11.8848 -2.31018 47.6524 -3.45654
143 1 12.7346 -3.27275 -1.84531 -3.4455
144 1 10.1937 -2.43788 -2.58958 -3.41285
145 1 14.425 -2.98129 -3.57744 -3.50971
146 1 16.3976 -1.23619 -3.36703 -3.17125
147 1 16.8453 -2.35057 -0.970659 -2.80591
148 1 14.6363 -1.46361 -1.46273 -3.50801
149 1 -17.3556 1.99545 39.8863 -2.65057
150 1 -16.3428 0.404063 45.066 -2.92872
151 1 -15.9653 0.900865 -2.06641 -3.22096
152 1 -14.2659 -0.48969 45.8183 -3.43726
153 1 -12.3756 1.21094 46.0074 -3.48044
154 1 -13.6419 -1.20778 -3.43482 -3.46061
155 1 -14.0708 1.26307 -3.8877 -3.48531
156 1 -11.9118 -1.27564 46.3507 -3.50027
157 1 -10.0379 0.599459 46.7237 -3.47184
158 1 -9.24606 -0.19293 -2.66065 -3.47789
159 1 -11.6174 0.503149 -3.24166 -3.48208
160 1 -7.50359 -0.2795 47.2265 -3.51093
161 1 -5.64221 1.41911 47.484 -3.50152
162 1 -5.61648 -0.403541 -2.56473 -3.51096
163 1 -7.46927 1.33548 -2.52988 -3.45421
164 1 -3.91261 -0.326356 47.4148 -3.50507
165 1 -1.94839 1.25764 47.5134 -3.46765
166 1 -1.96971 -0.633118 -2.56378 -3.53805
167 1 -3.69979 1.20835 -2.39363 -3.51435
168 1 -0.396731 -0.562419 47.2592 -3.47372
169 1 1.54774 1.16507 47.5517 -3.51152
170 1 1.44109 -0.675849 -2.50388 -3.4854
171 1 -0.194295 1.0663 -2.34722 -3.46228
172 1 3.28645 -0.677244 47.2983 -3.49024
173 1 4.89692 1.294 -4.11244 -3.4523
174 1 5.03055 -0.835865 -2.50006 -3.46387
175 1 3.21653 0.932674 -2.42075 -3.47197
176 1 6.57038 -0.543709 -4.42567 -3.5146
177 1 8.61656 1.22823 -4.07483 -3.50667
178 1 8.50581 -0.797981 -2.3112 -3.467
179 1 6.72241 1.00754 -2.25792 -3.51155
180 1 10.1956 -0.581588 -4.17748 -3.44658
181 1 11.9719 1.13134 -3.79731 -3.49159
182 1 12.0605 -0.723301 -2.05485 -3.55416
183 1 10.2778 0.97893 -1.99884 -3.50613
184 1 13.8373 -0.477473 -3.97866 -3.46723
185 1 15.62 1.12445 -3.38427 -3.19113
186 1 16.354 0.231877 -1.12659 -3.12467
187 1 13.9853 0.998811 -1.71281 -3.44352
188 1 17.5504 0.936016 46.8681 -2.61575
189 1 -15.1345 4.47308 45.1653 -2.97307
190 1 -16.3118 1.85353 47.2907 -2.83992
191 1 -14.5836 2.11497 45.3456 -3.33197
192 1 -12.7242 3.79002 45.6106 -3.41952
193 1 -12.2341 2.87882 -3.49525 -3.47845
194 1 -14.5089 3.77932 47.5229 -3.32272
195 1 -10.5191 2.98853 46.382 -3.47031
196 1 -8.61919 4.52682 46.4601 -3.49558
197 1 -9.8629 2.14772 -2.98519 -3.47487
198 1 -10.3626 4.57593 -3.60226 -3.47634
199 1 -8.14661 2.03716 46.9643 -3.49654
200 1 -6.08388 3.92491 47.1767 -3.47995
201 1 -5.52881 2.92051 -2.35152 -3.50333
202 1 -7.89614 3.79073 -2.80901 -3.50831
203 1 -3.67158 3.18076 -4.24526 -3.49427
204 1 -2.0572 4.94477 -3.92405 -3.47844
205 1 -1.80064 2.82659 -2.06001 -3.43524
206 1 -3.62178 4.60122 -1.99584 -3.50869
207 1 -0.247519 3.00533 -4.09312 -3.51581
208 1 1.48047 4.88651 -3.77286 -3.44658
209 1 1.54967 2.80236 -2.09943 -3.52333
210 1 -0.196075 4.69671 -1.94402 -3.49112
211 1 3.21306 3.00931 -4.04931 -3.50879
212 1 4.98976 4.7315 -4.02222 -3.4306
213 1 4.98829 2.6621 -2.17539 -3.44018
214 1 3.34499 4.53644 -1.96695 -3.51588
215 1 6.77915 2.9939 -4.0697 -3.5155
216 1 8.70561 4.68728 -3.66032 -3.47766
217 1 8.64162 2.86676 -2.03429 -3.46388
218 1 6.86964 4.49664 -1.93808 -3.48914
219 1 10.3638 2.90855 -3.8 -3.41188
220 1 12.2181 4.41648 -3.50743 -3.46922
221 1 12.1268 2.57056 -1.64041 -3.47093
222 1 10.5246 4.4301 -1.67843 -3.51228
223 1 14.0306 2.75734 -3.47171 -3.44727
224 1 15.9904 4.54646 -3.39617 -3.00669
225 1 15.8882 2.84705 -1.44474 -3.2661
226 1 13.934 4.36909 -1.47039 -3.42828
227 1 -14.827 6.11684 47.2121 -2.85327
228 1 -13.1978 6.03552 45.3654 -3.38098
229 1 -11.3029 7.85681 45.8064 -3.47239
230 1 -12.6565 5.30248 -4.04615 -3.4188
231 1 -13.2735 7.86806 47.4997 -3.11449
232 1 -10.9177 5.35818 45.7995 -3.43959
233 1 -9.06658 6.95565 46.3204 -3.50984
234 1 -8.34741 6.13258 -3.12933 -3.48541
235 1 -10.9853 6.96327 -3.64546 -3.43425
236 1 -6.64943 6.26772 46.8891 -3.4591
237 1 -4.8219 7.99175 46.9327 -3.50689
238 1 -5.94718 5.46903 -2.58757 -3.5166
239 1 -6.58544 7.91063 -2.85875 -3.51061
240 1 -4.332 5.55986 47.0419 -3.40303
241 1 -2.42825 7.44445 47.3592 -3.51167
242 1 -1.84311 6.58731 -1.76109 -3.50296
243 1 -4.19368 7.22866 -2.39396 -3.50482
244 1 -0.17207 6.59104 -3.59842 -3.42923
245 1 1.86883 8.49187 -3.48408 -3.52153
246 1 1.49863 6.46512 -1.79103 -3.48716
247 1 -0.0553134 8.37256 -1.71632 -3.45153
248 1 3.34615 6.38355 -3.70123 -3.46739
249 1 5.10272 8.21794 -3.5597 -3.4574
250 1 5.16451 6.40484 -1.8185 -3.4873
251 1 3.48402 8.18051 -1.65333 -3.46839
252 1 6.8236 6.37247 -3.62004 -3.50466
253 1 8.65716 8.06069 -3.38203 -3.4857
254 1 8.80023 6.20632 -1.60595 -3.51284
255 1 7.10238 8.07796 -1.50164 -3.48652
256 1 10.6133 6.26649 -3.57863 -3.47642
257 1 12.3682 8.16819 -3.27485 -3.46505
258 1 12.2992 6.24571 -1.50058 -3.51266
259 1 10.4886 8.01794 -1.49891 -3.5284
260 1 14.121 6.39666 -3.21371 -3.34172
261 1 15.6892 5.8714 -1.28977 -2.76596
262 1 14.0977 8.06106 -1.2941 -3.09403
263 1 -13.6669 8.48648 45.0381 -2.84203
264 1 -11.7854 10.2949 45.6902 -2.84827
265 1 -11.3669 9.33652 -3.84839 -3.19906
266 1 -9.48715 9.47016 45.7864 -3.41873
267 1 -7.6252 11.0624 45.9651 -3.33031
268 1 -8.98296 8.64967 -3.63316 -3.46367
269 1 -9.58537 10.9216 -3.7941 -3.20973
270 1 -7.1653 8.59789 46.4204 -3.50184
271 1 -5.32223 10.6139 46.5271 -3.47757
272 1 -4.74152 9.64443 -2.72541 -3.49687
273 1 -7.13215 10.2971 -3.41351 -3.48923
274 1 -3.05395 9.88569 47.1978 -3.50669
275 1 -1.04538 11.5206 47.3972 -3.5103
276 1 -2.44284 8.97209 -2.08644 -3.47036
277 1 -2.91316 11.4128 -2.40957 -3.49485
278 1 -0.571762 9.07222 -4.01851 -3.49461
279 1 1.34935 10.9991 -3.88154 -3.5113
280 1 1.95947 10.1476 -1.37616 -3.49132
281 1 -0.502741 10.7045 -1.98038 -3.48361
282 1 3.72734 10.0469 -3.33056 -3.44869
283 1 5.51105 11.89 -3.10671 -3.54256
284 1 5.3373 9.78741 -1.34573 -3.52244
285 1 3.65833 11.7752 -1.20576 -3.38813
286 1 7.05333 9.82868 -3.2606 -3.50049
287 1 8.66587 11.7686 -3.11988 -3.47262
288 1 8.89783 9.91054 -1.40516 -3.5157
289 1 7.03938 11.5582 -1.13067 -3.48422
290 1 10.5414 10.0244 -3.23896 -3.47755
291 1 12.4222 11.6328 -3.15228 -2.84871
292 1 12.4119 9.80908 -1.39572 -3.29091
293 1 10.7547 11.7023 -1.19949 -3.294
294 1 14.2677 9.69606 -3.14971 -2.68551
295 1 -9.72293 11.8952 45.64 -2.74169
296 1 -7.74883 12.6272 -3.78859 -3.053
297 1 -5.9121 13.0355 46.0386 -3.24
298 1 -4.16043 14.8185 46.3547 -2.79593
299 1 -5.34095 12.0154 -3.29108 -3.45941
300 1 -5.92488 14.4082 -3.64868 -2.69834
301 1 -3.53805 12.4478 46.8255 -3.46865
302 1 -1.73494 14.1406 46.8462 -3.21014
303 1 -1.11059 13.2396 -2.34544 -3.38275
304 1 -3.46849 14.0064 -3.00054 -3.09401
305 1 0.668247 13.3409 -4.2066 -3.38206
306 1 2.54124 14.9441 -3.8922 -3.08062
307 1 1.30244 12.5789 -1.82076 -3.43792
308 1 0.726014 14.9858 -2.06679 -2.95685
309 1 3.09914 12.5635 -3.45343 -3.46521
310 1 4.86936 14.3113 -3.59075 -3.08079
311 1 5.29714 13.3181 -1.04405 -3.29601
312 1 3.00832 14.1558 -1.3955 -3.12199
313 1 7.24186 13.7142 -2.78311 -3.18313
314 1 8.75134 13.3033 -0.903842 -3.09354
315 1 7.14117 15.0541 -0.691872 -2.55957
316 1 10.3847 13.4897 -2.82693 -2.70797
317 1 0.343056 15.5977 47.321 -2.67095
318 1 -5.94791 -14.6376 -0.174106 -2.85737
319 1 -7.67399 -14.5439 1.59972 -2.62043
320 1 -1.80175 -13.6855 0.34121 -3.01241
321 1 -3.59402 -13.8071 2.1848 -2.91003
322 1 2.15275 -14.3662 -1.0674 -2.95341
323 1 4.23471 -15.0975 -0.287779 -2.52004
324 1 0.680121 -14.4579 0.787209 -2.66417
325 1 4.77384 -13.5364 1.7579 -2.98463
326 1 3.06949 -13.7913 3.86322 -2.79005
327 1 7.04157 -12.623 4.66021 -2.70151
328 1 -13.3668 -10.9041 0.307039 -2.79268
329 1 -11.5114 -12.5361 0.176782 -2.68245
330 1 -9.61492 -11.0887 0.0816573 -3.40014
331 1 -9.71677 -13.0108 1.96865 -3.0903
332 1 -11.3905 -11.2003 2.03324 -3.2772
333 1 -7.77615 -13.0054 -0.0697171 -3.24044
334 1 -5.90771 -11.3251 0.0588618 -3.505
335 1 -5.87481 -12.9718 1.85068 -3.28744
336 1 -7.79642 -11.5008 1.74326 -3.43806
337 1 -4.17809 -13.0227 -0.130764 -3.28381
338 1 -2.42459 -11.2031 0.294058 -3.49912
339 1 -1.5711 -12.4074 2.42369 -3.29543
340 1 -4.0727 -11.382 2.05088 -3.3949
341 1 0.058278 -12.1642 0.690662 -3.39269
342 1 1.67282 -11.9409 -1.39718 -3.48361
343 1 2.50742 -12.9097 1.21476 -3.34846
344 1 0.137868 -10.6972 2.69894 -3.49003
345 1 4.0787 -12.7438 -0.754402 -3.41358
346 1 6.02319 -11.2916 -0.37622 -3.39826
347 1 4.76871 -12.0529 3.98425 -3.31608
348 1 4.31221 -11.0592 1.38389 -3.45425
349 1 6.63622 -11.9109 1.98724 -3.18064
350 1 8.45605 -10.2815 2.39316 -3.34175
351 1 9.07126 -11.0717 4.96691 -3.08074
352 1 6.67559 -10.3401 4.26211 -3.41422
353 1 10.7871 -10.4928 3.08174 -2.69218
354 1 12.6463 -8.99827 3.2744 -2.83457
355 1 10.9333 -9.24375 5.12325 -3.20578
356 1 -15.1289 -8.92102 0.04779 -2.68622
357 1 -13.093 -7.55262 0.217293 -3.45502
358 1 -13.1718 -9.2006 2.02581 -3.2959
359 1 -15.0001 -7.63574 2.30991 -3.07988
360 1 -11.3356 -9.41439 0.338242 -3.49498
361 1 -9.37073 -7.57569 0.36411 -3.47458
362 1 -9.52483 -9.49175 2.1555 -3.52669
363 1 -11.2694 -7.56146 2.19989 -3.51475
364 1 -7.81171 -9.48738 0.243904 -3.49328
365 1 -5.87287 -7.73279 0.465614 -3.49556
366 1 -5.88865 -9.8415 2.03961 -3.49928
367 1 -7.58178 -7.77081 2.38872 -3.4838
368 1 -4.09363 -9.48927 0.352136 -3.4882
369 1 -2.24136 -9.42258 -1.56709 -3.53543
370 1 -2.25328 -9.80832 2.41948 -3.47447
371 1 -4.00495 -8.18224 2.51438 -3.49823
372 1 -0.622156 -11.2489 -1.73708 -3.47327
373 1 1.20122 -9.40047 -1.59312 -3.48763
374 1 1.9044 -10.3667 0.89457 -3.49834
375 1 -0.457774 -9.59416 0.432895 -3.5087
376 1 3.56863 -10.2669 -0.910792 -3.48584
377 1 5.48503 -8.64469 -0.711814 -3.52753
378 1 6.02393 -9.44286 1.78606 -3.4729
379 1 3.65243 -8.66876 1.16698 -3.50202
380 1 7.84989 -9.28503 -0.0505408 -3.49214
381 1 9.5795 -7.60867 0.202127 -3.48258
382 1 8.55283 -8.6214 4.52212 -3.51447
383 1 7.79264 -7.69031 2.01696 -3.49864
384 1 10.1755 -8.34095 2.57342 -3.3809
385 1 12.035 -6.67886 2.78341 -3.38077
386 1 12.7888 -7.54383 5.49367 -3.20289
387 1 10.4043 -6.95464 4.79154 -3.49848
388 1 14.1784 -7.07634 3.44347 -2.73369
389 1 14.5717 -5.57268 5.57991 -2.98308
390 1 -16.6783 -4.02482 0.529231 -3.08957
391 1 -16.636 -5.86371 2.27042 -2.68767
392 1 -14.9563 -5.92503 0.393256 -3.39329
393 1 -13.1338 -4.11845 0.564823 -3.41987
394 1 -13.1331 -5.7767 2.42045 -3.50303
395 1 -14.9048 -4.17583 2.4689 -3.34714
396 1 -11.2805 -5.70914 0.380831 -3.48265
397 1 -9.33618 -4.18448 0.839192 -3.45971
398 1 -9.28673 -5.93404 2.60332 -3.46196
399 1 -11.0198 -4.23707 2.6681 -3.47569
400 1 -7.58873 -5.97796 0.760558 -3.46073
401 1 -5.83217 -5.88167 -1.20635 -3.49884
402 1 -5.66668 -6.30011 2.61569 -3.49688
403 1 -7.27026 -4.43183 2.71844 -3.45191
404 1 -4.05244 -7.6694 -1.37695 -3.48993
405 1 -2.21901 -5.91586 -1.07685 -3.49135
406 1 -2.15941 -7.90411 0.535721 -3.50108
407 1 -3.94303 -6.26493 0.732944 -3.49842
408 1 -0.381278 -7.58077 -1.36677 -3.46749
409 1 1.46116 -6.0144 -1.07365 -3.49759
410 1 1.35505 -7.84408 0.578583 -3.40107
411 1 -0.320353 -6.22285 0.859753 -3.51451
412 1 3.09668 -7.86587 -1.23344 -3.48687
413 1 4.90478 -6.31026 -0.934319 -3.5097
414 1 5.44758 -7.04197 1.48194 -3.49731
415 1 2.96695 -6.24608 0.841183 -3.41945
416 1 7.3451 -6.92657 -0.364237 -3.49241
417 1 9.12452 -5.17073 -0.295273 -3.52345
418 1 9.66975 -6.05608 2.29966 -3.46842
419 1 7.28943 -5.22219 1.67218 -3.49518
420 1 11.5119 -5.99698 0.420648 -3.4743
421 1 13.2258 -4.11 0.794257 -3.47231
422 1 12.1105 -5.1601 4.9719 -3.49474
423 1 11.3648 -4.21702 2.56308 -3.46025
424 1 13.6948 -4.7515 3.25805 -3.30448
425 1 15.8244 -2.96249 3.2979 -2.95388
426 1 16.4879 -3.96979 5.76056 -2.46534
427 1 14.0267 -3.08872 5.19935 -3.46581
428 1 -17.2325 -1.56029 -0.119123 -2.89263
429 1 -16.77 -2.42665 2.47942 -3.00155
430 1 -14.8164 -2.45253 0.656764 -3.42183
431 1 -12.8947 -0.640396 0.946937 -3.45915
432 1 -12.9937 -2.76409 2.83156 -3.46595
433 1 -14.7357 -1.05368 2.90401 -3.5006
434 1 -11.2908 -2.55358 0.745703 -3.49782
435 1 -9.40055 -2.21683 -1.14169 -3.46081
436 1 -9.002 -2.79832 2.76502 -3.41141
437 1 -11.0348 -1.2287 2.88532 -3.51792
438 1 -7.59104 -4.06719 -1.11104 -3.51832
439 1 -5.65636 -2.46745 -1.02899 -3.47321
440 1 -5.60147 -4.37116 0.759361 -3.49855
441 1 -7.32053 -2.59927 0.833532 -3.49503
442 1 -4.00934 -4.19233 -1.08145 -3.47791
443 1 -2.17743 -2.45336 -0.754374 -3.50106
444 1 -2.22128 -4.45661 0.90725 -3.51639
445 1 -3.87984 -2.62575 1.00522 -3.51258
446 1 -0.459845 -4.23012 -0.921562 -3.5236
447 1 1.54738 -2.63364 -0.70767 -3.43345
448 1 1.44623 -4.45422 0.991001 -3.48459
449 1 -0.341155 -2.79004 1.20914 -3.51282
450 1 3.21 -4.23391 -0.855887 -3.48522
451 1 5.05289 -2.56007 -0.812714 -3.46668
452 1 4.99311 -4.589 1.03241 -3.50205
453 1 3.22147 -2.6949 1.25189 -3.43456
454 1 6.6307 -4.42776 -0.980343 -3.48292
455 1 8.57075 -2.80615 -0.572297 -3.51384
456 1 9.14987 -3.57689 1.86751 -3.45888
457 1 6.75682 -2.89177 1.13833 -3.46647
458 1 11.023 -3.32037 -0.170444 -3.46304
459 1 12.7764 -1.67523 0.314608 -3.50178
460 1 13.3944 -2.44953 2.6197 -3.45887
461 1 11.0253 -1.79818 2.09786 -3.50842
462 1 15.1658 -2.3513 0.961226 -3.29793
463 1 16.8119 -0.64702 1.02443 -2.8187
464 1 15.9203 -1.31925 5.46503 -3.09261
465 1 15.2264 -0.631711 2.97779 -3.34597
466 1 -17.6467 0.947963 0.033364 -2.61924
467 1 -15.6316 2.36197 0.0639562 -3.33552
468 1 -16.9936 -0.0846949 2.45022 -3.02074
469 1 -15.2665 -0.120797 0.42571 -3.4566
470 1 -13.5931 0.272639 -1.60163 -3.4934
471 1 -12.6618 0.742373 3.1816 -3.49532
472 1 -15.1121 1.58164 2.46516 -3.43483
473 1 -11.1054 -0.471297 -0.870538 -3.50713
474 1 -9.29746 1.22869 -0.581541 -3.52004
475 1 -9.27782 -0.924303 1.0334 -3.52055
476 1 -11.0418 0.803273 1.25103 -3.4628
477 1 -7.47857 -0.600715 -0.901354 -3.52192
478 1 -5.51997 1.17966 -0.49439 -3.4654
479 1 -5.64459 -0.692193 1.2338 -3.48511
480 1 -7.4199 0.921822 1.26688 -3.4891
481 1 -3.86803 -0.668066 -0.670076 -3.52567
482 1 -1.96106 0.955537 -0.470229 -3.523
483 1 -2.04926 -0.917301 1.24954 -3.49877
484 1 -3.75494 0.824486 1.4145 -3.47793
485 1 -0.201633 -0.949544 -0.490296 -3.51681
486 1 1.42535 0.891928 -0.32241 -3.50891
487 1 1.59961 -1.10683 1.36327 -3.45202
488 1 -0.208847 0.719627 1.49887 -3.53078
489 1 3.18053 -0.886663 -0.5182 -3.48044
490 1 4.87758 0.768164 -0.318678 -3.47724
491 1 5.05186 -1.03879 1.43646 -3.49718
492 1 3.21446 0.733776 1.67589 -3.47218
493 1 6.67746 -0.732497 -0.374189 -3.4584
494 1 8.59321 0.757037 -0.118755 -3.41213
495 1 8.48119 -1.28314 1.60772 -3.50318
496 1 6.75763 0.617386 1.69839 -3.46462
497 1 10.2422 -1.00506 -0.312861 -3.48384
498 1 12.1114 0.817328 0.0037936 -3.47388
499 1 12.8302 0.0622511 2.39024 -3.52227
500 1 10.3623 0.470251 1.64851 -3.45632
501 1 14.4476 0.194978 0.565897 -3.46956
502 1 16.3798 1.82442 0.769161 -3.08652
503 1 17.1843 1.38722 3.11476 -2.66427
504 1 14.6896 1.78296 2.68569 -3.49371
505 1 17.4814 2.52112 -3.32082 -2.50837
506 1 -16.2225 3.28497 -2.42731 -2.82698
507 1 -15.2925 3.9995 2.17042 -3.15223
508 1 -14.0531 2.71638 -1.80966 -3.42848
509 1 -12.0281 4.33335 -1.56206 -3.48865
510 1 -13.4064 1.72614 0.739671 -3.4139
511 1 -13.6582 3.9987 0.288184 -3.44555
512 1 -11.726 1.96497 -1.10144 -3.53343
513 1 -9.71588 3.58542 -1.08627 -3.47849
514 1 -9.04468 2.70136 1.44853 -3.47268
515 1 -11.3351 3.29225 1.0374 -3.51232
516 1 -7.35008 2.80763 -0.540333 -3.51102
517 1 -5.4929 4.57058 -0.114279 -3.52253
518 1 -5.47531 2.65279 1.4941 -3.50328
519 1 -7.2073 4.36613 1.75597 -3.50734
520 1 -3.72125 2.73038 -0.358832 -3.49116
521 1 -1.89857 4.72978 -0.00914259 -3.45623
522 1 -2.05233 2.56522 1.59719 -3.51553
523 1 -3.73049 4.46624 1.75993 -3.51526
524 1 -0.256111 2.74025 -0.171849 -3.5016
525 1 1.62591 4.70724 0.0230543 -3.48919
526 1 1.58862 2.54459 1.62481 -3.49885
527 1 -0.183566 4.21184 1.84216 -3.48891
528 1 3.20624 2.69831 -0.227919 -3.48296
529 1 5.11357 4.23051 -0.113229 -3.4993
530 1 5.02943 2.33381 1.7232 -3.47284
531 1 3.50396 4.27096 1.88172 -3.51979
532 1 6.99394 2.46342 -0.0229728 -3.46787
533 1 8.62856 4.26872 0.0899446 -3.49555
534 1 8.62862 2.22895 1.91541 -3.49106
535 1 6.73755 4.09538 1.94859 -3.4961
536 1 10.3088 2.49353 0.044408 -3.49484
537 1 12.1044 4.37361 0.487863 -3.4904
538 1 12.1404 2.56644 2.01983 -3.46779
539 1 10.2823 4.15604 2.27779 -3.46676
540 1 13.9861 2.59695 0.270523 -3.50562
541 1 15.8509 4.23633 0.610687 -3.08122
542 1 16.3455 3.77646 3.04448 -3.08135
543 1 13.9778 4.1467 2.22493 -3.47167
544 1 -16.0085 4.84064 -0.173095 -2.71477
545 1 -14.4912 5.18542 -2.11285 -3.21863
546 1 -12.72 6.8934 -1.89909 -3.3135
547 1 -11.8649 5.87468 0.608713 -3.51098
548 1 -14.2467 6.44629 0.274949 -3.00843
549 1 -10.1115 6.13805 -1.35987 -3.49014
550 1 -8.27911 7.7115 -1.04639 -3.46212
551 1 -9.47377 5.17674 1.10148 -3.46754
552 1 -10.1639 7.79136 0.761764 -3.44233
553 1 -7.8856 5.34142 -0.640856 -3.45499
554 1 -5.9562 6.93519 -0.525255 -3.49987
555 1 -5.4087 6.21622 1.92908 -3.50139
556 1 -7.72049 6.86298 1.41955 -3.49858
557 1 -3.6645 6.35775 0.0355213 -3.48683
558 1 -1.93291 8.11203 0.342124 -3.51112
559 1 -1.96524 6.24372 1.92566 -3.44156
560 1 -3.61524 7.89008 2.20939 -3.4731
561 1 -0.152911 6.28823 0.218943 -3.43687
562 1 1.65439 8.02932 0.212262 -3.51491
563 1 1.67492 6.03625 2.14967 -3.49435
564 1 -0.0084746 7.8882 2.11419 -3.49762
565 1 3.48952 6.33213 0.0802092 -3.509
566 1 5.35218 8.02752 0.383337 -3.4962
567 1 5.22672 5.98729 2.07871 -3.49885
568 1 3.52341 7.88133 2.23056 -3.47792
569 1 7.00104 6.17487 0.183136 -3.50265
570 1 8.71363 7.92014 0.348672 -3.45007
571 1 8.59812 5.84241 2.15164 -3.48963
572 1 7.03733 7.75842 2.22664 -3.49777
573 1 10.3733 6.09384 0.333902 -3.50057
574 1 12.1397 7.83653 0.475206 -3.4794
575 1 12.1735 5.97754 2.40122 -3.47462
576 1 10.4628 7.62923 2.37966 -3.51986
577 1 13.9832 6.10113 0.421999 -3.3798
578 1 15.6217 6.17148 2.42652 -2.82906
579 1 13.7548 7.79367 2.45587 -3.0903
580 1 -13.1745 9.17619 -1.99409 -2.66485
581 1 -11.2028 10.9319 -1.89945 -2.84224
582 1 -12.6311 8.20416 0.322738 -3.1883
583 1 -10.8784 8.59387 -1.31582 -3.33526
584 1 -8.80714 10.0824 -1.32183 -3.5022
585 1 -8.23294 9.2782 1.05374 -3.47685
586 1 -10.7923 10.0706 0.589765 -3.16457
587 1 -6.45536 9.47282 -0.840939 -3.49097
588 1 -4.74229 11.3953 -0.768031 -3.47844
589 1 -5.89218 8.56657 1.5739 -3.46349
590 1 -6.46006 10.9259 1.07195 -3.4109
591 1 -4.14242 8.80563 -0.293145 -3.50275
592 1 -2.35395 10.7025 -0.0232591 -3.51947
593 1 -1.65457 9.70611 2.45446 -3.46384
594 1 -4.10575 10.239 1.75942 -3.4861
595 1 0.00807535 9.86785 0.541852 -3.50412
596 1 1.73442 11.5747 0.72553 -3.50175
597 1 1.84719 9.46558 2.48618 -3.44312
598 1 0.108554 11.2977 2.58373 -3.48061
599 1 3.50181 9.73808 0.42247 -3.51352
600 1 5.33584 11.4067 0.734448 -3.49723
601 1 5.3082 9.50259 2.35811 -3.48487
602 1 3.56507 11.209 2.50886 -3.50964
603 1 7.1755 9.78622 0.565998 -3.50993
604 1 8.86723 11.5714 0.75354 -3.43164
605 1 8.71314 9.52737 2.52724 -3.48194
606 1 7.08088 11.1792 2.80308 -3.42918
607 1 10.3611 9.61091 0.616901 -3.48958
608 1 12.103 11.4788 0.870201 -2.86269
609 1 12.1628 9.60939 2.48925 -3.28371
610 1 10.3918 11.4385 2.6784 -3.34219
611 1 13.7622 9.67806 0.627518 -2.73653
612 1 -9.41824 12.661 -1.76378 -2.63995
613 1 -8.85652 11.8775 0.549085 -3.08228
614 1 -7.1162 11.9403 -1.41303 -3.3559
615 1 -5.25089 13.6495 -1.32712 -2.95568
616 1 -4.4768 12.7462 1.34283 -3.33425
617 1 -6.76385 13.2493 0.664712 -2.77893
618 1 -2.98295 13.141 -0.64592 -3.27592
619 1 -1.19461 14.7527 -0.196121 -2.83789
620 1 -2.22268 12.0125 1.97303 -3.42117
621 1 -2.73803 14.5023 1.61823 -2.82666
622 1 -0.399782 12.2846 -0.131074 -3.44389
623 1 1.28886 14.1401 0.390537 -3.21605
624 1 1.98228 13.0994 2.84242 -3.4619
625 1 -0.411288 13.7574 2.00783 -3.34473
626 1 3.58518 13.1785 0.919172 -3.39078
627 1 5.19956 14.9527 0.855321 -2.87082
628 1 5.41264 12.9908 2.78768 -3.43993
629 1 3.74399 14.7471 2.8181 -3.04326
630 1 6.93339 13.1813 0.890135 -3.35568
631 1 8.52697 13.1362 2.83506 -3.13937
632 1 6.73216 14.9348 2.78442 -2.74918
633 1 10.4743 13.3651 0.851706 -2.64457
634 1 1.33321 15.5488 2.41618 -2.70163
635 1 -5.59727 -14.1675 3.9505 -2.82509
636 1 -7.26605 -14.0629 6.03127 -2.71178
637 1 -1.10967 -13.2522 5.00591 -3.00292
638 1 -3.13642 -13.4918 6.96081 -3.03269
639 1 0.723666 -13.132 3.1197 -3.21894
640 1 1.0646 -13.9163 5.58527 -2.77089
641 1 -0.652587 -14.1212 7.72229 -2.92901
642 1 5.36842 -12.8921 6.50081 -2.98749
643 1 3.79332 -13.0559 8.58106 -3.05605
644 1 5.93742 -13.8219 8.95668 -2.60769
645 1 -13.2012 -11.0305 3.89195 -2.91603
646 1 -11.4268 -12.8964 3.9401 -2.77452
647 1 -9.45401 -11.2369 3.86826 -3.4787
648 1 -9.60361 -13.2722 5.55604 -2.99926
649 1 -11.2964 -11.2658 5.62021 -3.29288
650 1 -7.99808 -13.4134 3.71678 -3.18143
651 1 -6.01455 -11.8127 4.0269 -3.43001
652 1 -5.38499 -12.6961 6.46517 -3.2887
653 1 -7.68225 -11.6892 5.71004 -3.37201
654 1 -3.72819 -12.6189 4.46537 -3.30069
655 1 -1.73066 -10.9648 4.56756 -3.49741
656 1 -0.982197 -11.6863 7.21643 -3.43274
657 1 -3.52252 -10.98 6.53731 -3.48978
658 1 0.80569 -11.5199 5.24449 -3.45661
659 1 2.51249 -11.4028 3.25262 -3.48154
660 1 1.33873 -12.454 7.80888 -3.38831
661 1 0.746266 -10.0461 7.17568 -3.44029
662 1 3.10261 -12.2545 5.97934 -3.31507
663 1 4.92197 -10.5619 6.11464 -3.49033
664 1 5.55123 -11.3532 8.61929 -3.39777
665 1 3.32483 -10.796 8.10432 -3.41607
666 1 7.25005 -11.2189 6.74949 -3.35623
667 1 9.19996 -9.2883 7.08429 -3.44113
668 1 7.9026 -12.0169 9.22895 -2.97075
669 1 7.55369 -9.69853 8.89955 -3.48305
670 1 9.63907 -11.5985 7.48639 -2.72059
671 1 11.5218 -9.98774 7.54181 -2.86163
672 1 9.92998 -10.2403 9.42035 -3.18202
673 1 -15.0722 -9.34491 4.22501 -2.65729
674 1 -13.0505 -7.80383 4.1218 -3.4486
675 1 -12.9876 -9.59564 5.83382 -3.23991
676 1 -14.8833 -7.73884 5.94713 -3.10729
677 1 -11.3837 -9.45489 4.03682 -3.40488
678 1 -9.30897 -8.0034 4.31645 -3.48367
679 1 -9.27265 -9.85998 5.81249 -3.42996
680 1 -11.0488 -8.13286 6.0749 -3.49105
681 1 -7.51162 -9.74713 4.03423 -3.48136
682 1 -5.67376 -8.16902 4.32479 -3.49327
683 1 -5.89786 -10.1586 6.08101 -3.4945
684 1 -7.40509 -8.18072 6.33653 -3.44018
685 1 -4.11013 -10.2003 4.10661 -3.48275
686 1 -2.20392 -8.39212 4.45745 -3.47015
687 1 -1.60649 -9.3175 6.68564 -3.45188
688 1 -3.86338 -8.6334 6.24034 -3.44996
689 1 0.114238 -9.18636 4.77385 -3.48992
690 1 1.92123 -8.87022 3.19209 -3.48151
691 1 2.60825 -9.80343 5.5712 -3.45062
692 1 0.118067 -7.68272 7.0734 -3.48394
693 1 4.28477 -9.49081 3.63799 -3.47127
694 1 6.13168 -8.04648 3.86582 -3.44094
695 1 5.07909 -9.049 8.27704 -3.48993
696 1 4.31676 -8.11046 5.76673 -3.47348
697 1 6.77613 -8.78927 6.43009 -3.50983
698 1 8.59903 -6.84374 6.62901 -3.49283
699 1 9.2324 -7.71374 9.02781 -3.49962
700 1 6.89941 -7.2241 8.57141 -3.49867
701 1 11.0415 -7.46568 7.19157 -3.44887
702 1 13.0138 -5.79187 7.32043 -3.31004
703 1 11.7717 -8.57539 9.69327 -3.20142
704 1 11.1488 -5.96141 9.20716 -3.50376
705 1 13.2987 -8.16977 7.81519 -2.72239
706 1 13.5255 -6.5264 9.79513 -3.12056
707 1 -16.3324 -4.05091 4.34006 -2.98045
708 1 -16.6517 -5.99585 6.30863 -2.62528
709 1 -14.8321 -6.09391 4.17775 -3.30247
710 1 -12.9153 -4.49073 4.68183 -3.45745
711 1 -12.8248 -6.31935 6.30606 -3.46024
712 1 -14.5907 -4.67002 6.6695 -3.43289
713 1 -11.1043 -6.14778 4.27937 -3.50354
714 1 -9.20726 -4.49471 4.71015 -3.52133
715 1 -9.28963 -6.49745 6.4125 -3.50467
716 1 -11.0139 -4.76053 6.66414 -3.4754
717 1 -7.40808 -6.38899 4.54409 -3.52918
718 1 -5.55433 -4.73639 4.68503 -3.50125
719 1 -5.55483 -6.70993 6.41876 -3.51185
720 1 -7.38366 -4.85249 6.56534 -3.51378
721 1 -3.82086 -6.47707 4.54027 -3.4984
722 1 -2.24369 -6.35588 2.72754 -3.50174
723 1 -2.1235 -6.88218 6.5971 -3.50421
724 1 -3.70563 -4.8429 6.53323 -3.46069
725 1 -0.341824 -8.14073 2.56701 -3.50181
726 1 1.40881 -6.41198 2.88351 -3.48227
727 1 1.99539 -7.47788 5.31112 -3.51243
728 1 -0.504723 -6.71606 4.59032 -3.52086
729 1 3.68997 -7.14092 3.29477 -3.48501
730 1 5.59263 -5.62932 3.57129 -3.49581
731 1 6.18496 -6.50448 5.98095 -3.45484
732 1 3.85522 -5.65056 5.47764 -3.49065
733 1 7.95491 -6.27356 4.19004 -3.51519
734 1 9.6935 -4.39694 4.37552 -3.49097
735 1 8.76398 -5.28848 8.83242 -3.47346
736 1 8.13647 -4.55479 6.26893 -3.45737
737 1 10.5492 -5.0985 6.84078 -3.47354
738 1 12.3887 -3.43134 7.05815 -3.50934