ITEM: TIMESTEP
94000
ITEM: NUMBER OF ATOMS
3804
ITEM: BOX BOUNDS ss ss pp
-1.7749401550996531e+01 1.7752926455627453e+01
-1.7144715861203768e+01 1.7186979469766424e+01
-2.0388600000000001e+00 4.5418860000000002e+01
ITEM: ATOMS id type x y z c_peratom
1 1 -5.41987 -15.3067 45.5669 -2.95155
2 1 -7.38672 -15.317 -0.0351903 -2.68237
3 1 -2.0429 -15.3885 45.3977 -3.03173
4 1 -3.74372 -15.3686 0.0323029 -2.98159
5 1 -0.314426 -16.8851 -2.18752 -2.34866
6 1 1.91526 -15.4672 -2.18456 -3.05639
7 1 0.194501 -15.5183 -0.226333 -3.12418
8 1 5.67073 -15.1453 -1.98256 -2.94064
9 1 3.80355 -15.2286 0.181676 -2.93277
10 1 7.49958 -14.8149 -0.261416 -2.68641
11 1 -12.649 -11.7678 45.6842 -2.80524
12 1 -10.628 -13.3017 -1.99574 -2.78098
13 1 -8.84228 -11.7423 -2.15401 -3.36347
14 1 -9.03673 -13.5313 0.0233981 -3.02816
15 1 -10.6163 -11.6617 -0.0103009 -3.29249
16 1 -7.3254 -13.8272 45.4084 -3.34354
17 1 -5.4071 -12.0205 45.5859 -3.45622
18 1 -5.6103 -13.6856 -0.0387911 -3.41501
19 1 -7.39058 -12.0052 -0.0456235 -3.44091
20 1 -3.71523 -13.6492 -2.1157 -3.3611
21 1 -1.70154 -12.0528 -2.18185 -3.49341
22 1 -1.80179 -13.9663 -0.128846 -3.39917
23 1 -3.59215 -12.251 -0.143791 -3.49072
24 1 0.0640913 -13.8538 -1.95934 -3.45041
25 1 1.66068 -12.0516 -2.11391 -3.49309
26 1 1.77525 -13.6002 -0.179345 -3.45731
27 1 -0.117812 -11.9229 -0.210642 -3.50921
28 1 3.65276 -13.5679 -2.05916 -3.47957
29 1 5.47886 -11.8364 45.3958 -3.45885
30 1 5.43711 -13.4361 -0.153391 -3.4047
31 1 3.55681 -11.9733 -0.00596283 -3.45803
32 1 7.42804 -13.3913 -2.03363 -3.25826
33 1 9.36674 -11.9503 45.2979 -3.32879
34 1 9.37251 -13.0006 -0.00583851 -3.14919
35 1 7.235 -11.7357 -0.0233869 -3.45946
36 1 11.2664 -13.2444 45.5518 -2.6336
37 1 13.0226 -11.335 45.3873 -2.91067
38 1 11.3789 -11.546 -0.128839 -3.28664
39 1 -14.3143 -10.1072 -2.05699 -2.68154
40 1 -12.4913 -8.61892 -1.95339 -3.4118
41 1 -12.7039 -9.88729 0.0446061 -3.30075
42 1 -14.7275 -8.29834 -0.0539003 -3.06369
43 1 -10.7481 -10.2068 45.3529 -3.4597
44 1 -8.88654 -8.67435 -2.05157 -3.46694
45 1 -8.92822 -10.0807 -0.0552268 -3.39283
46 1 -10.7248 -8.61856 -0.0716724 -3.42667
47 1 -7.06957 -10.1655 45.4489 -3.43638
48 1 -5.24961 -8.56565 45.4522 -3.45438
49 1 -5.25559 -10.4515 0.0564751 -3.49628
50 1 -6.96576 -8.60461 0.0100305 -3.5083
51 1 -3.66345 -10.4147 45.4704 -3.50417
52 1 -1.72545 -8.63472 45.3482 -3.49505
53 1 -1.85204 -10.196 0.0241696 -3.45993
54 1 -3.67595 -8.61444 -0.0650012 -3.46972
55 1 -0.0584563 -10.2661 45.3449 -3.40659
56 1 1.76148 -8.69983 -2.24537 -3.44661
57 1 1.76038 -10.3538 -0.0749631 -3.46733
58 1 0.0819227 -8.70914 -0.0771018 -3.47827
59 1 3.56184 -10.3669 45.3413 -3.49652
60 1 5.34648 -8.74833 -2.20395 -3.51126
61 1 5.35852 -10.2147 -0.211313 -3.45833
62 1 3.53056 -8.65153 -0.165691 -3.47865
63 1 7.37195 -10.3932 -2.22428 -3.48079
64 1 8.95633 -8.66023 -2.08519 -3.4246
65 1 9.14391 -10.282 -0.203164 -3.49781
66 1 7.27639 -8.72533 -0.262971 -3.47273
67 1 11.0348 -10.0176 45.4081 -3.42092
68 1 12.8523 -8.27684 45.5523 -3.44814
69 1 13.2851 -9.81118 -0.00298937 -3.2878
70 1 10.9459 -8.59897 -0.0719349 -3.51015
71 1 14.8534 -9.60415 45.3645 -2.75909
72 1 14.9744 -8.13082 -0.120021 -3.05369
73 1 -16.305 -5.08517 -2.23359 -2.95782
74 1 -16.3778 -6.63125 -0.26072 -2.64919
75 1 -14.4684 -6.80678 -1.93853 -3.35923
76 1 -12.6239 -5.34561 45.5703 -3.44925
77 1 -12.5832 -6.97167 -0.0554995 -3.5075
78 1 -14.3443 -5.32586 0.136775 -3.42032
79 1 -10.5877 -6.89037 -1.96244 -3.5033
80 1 -8.87144 -5.27308 45.2992 -3.43929
81 1 -8.89367 -6.9874 0.0324939 -3.5337
82 1 -10.6519 -5.14355 -0.0706224 -3.51831
83 1 -7.05984 -6.91508 45.4514 -3.51934
84 1 -5.36549 -5.10829 45.4696 -3.48195
85 1 -5.30716 -6.82919 0.0160261 -3.49842
86 1 -7.20773 -5.20448 0.0409349 -3.52687
87 1 -3.44753 -6.83162 45.484 -3.50404
88 1 -1.6295 -5.30549 45.3524 -3.43778
89 1 -1.67676 -6.89036 -0.0659129 -3.53149
90 1 -3.54915 -5.02201 -0.118497 -3.43743
91 1 0.150136 -6.97234 45.3577 -3.4937
92 1 1.95453 -5.20794 -2.15604 -3.42265
93 1 1.86623 -6.93027 -0.181486 -3.44615
94 1 0.103548 -5.26797 -0.0441515 -3.43806
95 1 3.57565 -6.92259 -2.11382 -3.50262
96 1 5.45069 -5.19681 45.3819 -3.50342
97 1 5.44161 -7.12716 -0.102707 -3.5175
98 1 3.55224 -5.28369 -0.14585 -3.51785
99 1 7.15151 -6.8869 -2.03304 -3.48888
100 1 8.97089 -5.24217 45.3407 -3.49869
101 1 9.07633 -6.95292 -0.17125 -3.50615
102 1 7.15556 -5.19126 -0.0621489 -3.4836
103 1 10.641 -6.96631 45.3709 -3.41785
104 1 12.5721 -5.5109 45.3035 -3.47761
105 1 12.7278 -6.90766 0.0761957 -3.43018
106 1 10.9712 -5.22069 -0.144806 -3.48454
107 1 14.7753 -6.73327 45.2725 -3.37827
108 1 16.11 -4.64233 45.2222 -3.03585
109 1 16.607 -6.1423 -0.241653 -2.67649
110 1 14.3935 -5.13878 -0.0749281 -3.49847
111 1 -16.065 -1.70724 -2.01294 -3.11539
112 1 -16.0229 -3.49341 -0.185209 -3.0491
113 1 -14.3198 -3.64585 -2.04355 -3.48339
114 1 -12.5604 -1.80219 -1.99983 -3.48499
115 1 -12.607 -3.6193 -0.0356638 -3.4786
116 1 -14.2673 -1.91388 -0.0754536 -3.4396
117 1 -10.891 -3.50761 -2.00953 -3.5112
118 1 -9.10331 -1.84127 -1.99195 -3.48575
119 1 -8.96934 -3.37115 0.0389256 -3.4718
120 1 -10.8948 -1.81147 -0.0409433 -3.47081
121 1 -7.20927 -3.54662 45.489 -3.4591
122 1 -5.26571 -1.96242 -2.05555 -3.55262
123 1 -5.29736 -3.51817 0.0546384 -3.44221
124 1 -7.10964 -1.84587 -0.152419 -3.45865
125 1 -3.45718 -3.67232 45.353 -3.45363
126 1 -1.76551 -1.85947 45.4817 -3.50605
127 1 -1.58477 -3.59644 -0.0910879 -3.47059
128 1 -3.40503 -1.85697 -0.0728648 -3.53919
129 1 0.0594517 -3.67063 45.3388 -3.48721
130 1 1.69408 -1.79053 45.515 -3.48209
131 1 1.74517 -3.49612 -0.120401 -3.48206
132 1 -0.028254 -1.77179 -0.1211 -3.45357
133 1 3.52141 -3.49587 45.4482 -3.47502
134 1 5.36838 -1.88457 45.5131 -3.40911
135 1 5.39206 -3.55385 0.0601633 -3.46145
136 1 3.57022 -2.01724 0.018544 -3.43672
137 1 7.08385 -3.40436 45.3419 -3.41117
138 1 9.0478 -1.82594 45.3744 -3.52097
139 1 9.05363 -3.61577 -0.0616776 -3.50814
140 1 7.21022 -1.8844 -0.166725 -3.49457
141 1 10.9319 -3.49203 45.5005 -3.53183
142 1 12.7832 -1.68484 45.3746 -3.37751
143 1 12.4984 -3.33794 0.0699213 -3.43961
144 1 10.7424 -1.6982 -0.105483 -3.47497
145 1 14.0438 -3.56352 45.3716 -3.36454
146 1 16.0388 -1.98794 45.4599 -3.17089
147 1 16.235 -3.40364 -0.0899821 -3.02399
148 1 14.3385 -1.78209 -0.0851155 -3.45033
149 1 -17.7882 -0.192372 45.5585 -2.22026
150 1 -16.1223 1.72139 45.4967 -3.0906
151 1 -16.0599 -0.0492314 -0.00985708 -3.25309
152 1 -14.1964 0.184033 -1.91635 -3.47527
153 1 -12.2809 1.67599 -2.06661 -3.47651
154 1 -12.5326 -0.062077 -0.147515 -3.45842
155 1 -14.1242 1.79705 0.0142861 -3.42896
156 1 -10.7856 -0.17862 -2.01618 -3.4132
157 1 -8.96989 1.39636 45.5682 -3.46432
158 1 -9.12942 -0.179 0.126441 -3.49061
159 1 -10.6865 1.63351 0.127104 -3.48525
160 1 -7.18459 -0.176063 45.499 -3.47032
161 1 -5.43142 1.5338 -2.00512 -3.4694
162 1 -5.31543 -0.189064 -0.160376 -3.44918
163 1 -7.20022 1.54256 -0.0216863 -3.49174
164 1 -3.422 -0.0814356 -2.16825 -3.50339
165 1 -1.75594 1.73782 -2.18501 -3.4393
166 1 -1.65747 -0.0084404 -0.0655624 -3.49029
167 1 -3.67877 1.47594 -0.0724587 -3.45638
168 1 -0.0469056 -0.124973 -2.05617 -3.46334
169 1 1.73319 1.44023 -2.09612 -3.45641
170 1 1.87506 -0.212706 -0.106712 -3.45764
171 1 0.185565 1.67256 -0.0555715 -3.50513
172 1 3.59744 -0.21789 -2.0864 -3.5168
173 1 5.34185 1.58724 45.3898 -3.47322
174 1 5.37134 -0.175883 0.0526196 -3.52992
175 1 3.47756 1.48291 -0.141255 -3.48792
176 1 7.02993 -0.10283 45.4705 -3.48768
177 1 8.87612 1.70269 -2.16102 -3.49423
178 1 8.887 0.00424334 -0.247712 -3.46772
179 1 7.10054 1.63385 -0.0882852 -3.49817
180 1 10.8758 0.00247176 45.4437 -3.47549
181 1 12.4596 1.72288 45.3817 -3.46593
182 1 12.5824 -0.0335654 -0.0997008 -3.51721
183 1 10.731 1.69994 -0.0723934 -3.48512
184 1 14.5123 0.0191238 -2.14573 -3.49791
185 1 16.1138 2.1004 -2.04536 -3.00455
186 1 15.9692 0.173674 -0.232183 -3.16342
187 1 14.1655 1.82651 -0.0549998 -3.48352
188 1 17.3024 0.147094 45.281 -2.44516
189 1 -15.7594 5.3398 45.3248 -3.01215
190 1 -16.0366 3.67414 -0.285503 -2.99066
191 1 -14.3531 3.32669 45.2057 -3.43267
192 1 -12.5352 5.11342 -2.27754 -3.51271
193 1 -12.375 3.48958 -0.147008 -3.47265
194 1 -14.1083 5.12473 -0.178553 -3.40134
195 1 -10.5355 3.52089 -2.03332 -3.51363
196 1 -8.7646 5.18807 45.4732 -3.43465
197 1 -8.92736 3.48348 -0.0789533 -3.43247
198 1 -10.5641 5.24338 -0.0676968 -3.45313
199 1 -7.3835 3.20184 45.6033 -3.4421
200 1 -5.44049 5.15146 -2.00631 -3.50009
201 1 -5.47797 3.14277 -0.0838833 -3.46262
202 1 -7.11181 5.18971 0.0325532 -3.51608
203 1 -3.56549 3.39953 -1.91284 -3.49443
204 1 -1.74521 5.06537 -1.93498 -3.41453
205 1 -1.78925 3.22483 -0.227385 -3.48697
206 1 -3.80558 4.93677 0.156339 -3.43982
207 1 0.26891 3.2834 -2.05128 -3.47984
208 1 1.95442 5.08163 45.4016 -3.51225
209 1 1.89071 3.44839 -0.179011 -3.47816
210 1 -0.0363501 5.08191 0.0212694 -3.49815
211 1 3.63594 3.23638 -2.038 -3.46156
212 1 5.30177 5.02395 45.5362 -3.45713
213 1 5.17761 3.35761 -0.0699352 -3.47504
214 1 3.64343 5.15898 0.0841173 -3.47029
215 1 7.09066 3.41257 45.4491 -3.49092
216 1 8.91304 5.27025 -2.0549 -3.48937
217 1 8.86521 3.47138 -0.144076 -3.51453
218 1 7.11424 5.17031 -0.113269 -3.50733
219 1 10.5884 3.45966 45.3965 -3.51054
220 1 12.4696 5.17392 45.4619 -3.43434
221 1 12.2638 3.51314 -0.0797819 -3.46564
222 1 10.5379 5.40816 -0.0806386 -3.51319
223 1 14.0306 3.48693 45.3031 -3.37287
224 1 16.0519 4.9126 45.3962 -3.00604
225 1 16.0218 3.65597 0.0425922 -3.04777
226 1 14.0153 5.135 -0.0472173 -3.38617
227 1 -15.7736 6.89963 -0.0474382 -2.73145
228 1 -14.0467 7.017 45.4965 -3.30939
229 1 -12.1787 8.57019 45.4181 -3.44408
230 1 -12.3755 6.85434 -0.074214 -3.47574
231 1 -13.9271 8.71112 -0.0469135 -3.14548
232 1 -10.566 6.72173 -2.03305 -3.46699
233 1 -8.99094 8.65054 -2.0768 -3.47794
234 1 -8.85004 7.15378 -0.120829 -3.49244
235 1 -10.6526 8.71606 -0.0437495 -3.47317
236 1 -7.03651 7.00186 -2.17746 -3.4793
237 1 -5.07172 8.44681 -2.12131 -3.46691
238 1 -5.30129 6.77612 -0.0816395 -3.43167
239 1 -6.8535 8.59718 -0.105012 -3.44388
240 1 -3.50856 6.62586 -1.97403 -3.45633
241 1 -1.71019 8.40063 -2.03226 -3.50546
242 1 -2.01006 6.55878 -0.000541635 -3.48006
243 1 -3.61454 8.5384 -0.10868 -3.51018
244 1 -0.0445724 6.68022 45.3085 -3.41235
245 1 1.66098 8.33732 45.3959 -3.42236
246 1 1.7418 6.81916 -0.00136082 -3.48137
247 1 -0.173057 8.37869 -0.0327088 -3.50207
248 1 3.78007 7.01819 45.5153 -3.49231
249 1 5.37582 8.81828 45.4424 -3.41479
250 1 5.40431 6.99924 0.198216 -3.43132
251 1 3.60125 8.52953 -0.00698423 -3.43443
252 1 6.95992 7.01894 -2.05275 -3.48274
253 1 8.71356 8.60214 45.432 -3.48106
254 1 8.75717 7.04249 0.0162902 -3.42671
255 1 7.09495 8.70784 0.0671636 -3.46709
256 1 10.581 7.05153 45.3196 -3.45259
257 1 12.3867 8.57317 -2.18169 -3.36995
258 1 12.3753 7.00684 0.0375923 -3.48702
259 1 10.5089 8.6315 0.0277478 -3.49132
260 1 14.2724 6.73785 -2.00426 -3.35067
261 1 16.0227 6.28834 0.22555 -2.75402
262 1 14.3619 8.39154 -0.0286377 -3.04255
263 1 -14.0119 10.3283 45.3928 -2.74605
264 1 -12.1847 12.1873 45.6101 -2.80161
265 1 -12.3401 10.6045 -0.114779 -3.25991
266 1 -10.6878 10.3785 -2.01303 -3.41875
267 1 -8.63477 12.0407 -2.00086 -3.41836
268 1 -8.7548 10.2223 -0.111458 -3.52518
269 1 -10.3671 12.0653 -0.069257 -3.35615
270 1 -6.98218 10.1217 -2.16379 -3.51099
271 1 -5.39614 12.0425 -2.09749 -3.4957
272 1 -5.29177 10.3641 -0.176856 -3.45243
273 1 -6.97703 12.1005 -0.221174 -3.43405
274 1 -3.33612 10.2127 -2.1664 -3.4986
275 1 -1.5757 11.9698 45.2651 -3.51633
276 1 -1.71497 10.2409 -0.04723 -3.46222
277 1 -3.36829 11.9921 -0.105809 -3.4309
278 1 0.0769966 10.124 -1.94791 -3.47432
279 1 1.42283 12.0908 45.3996 -3.48285
280 1 1.59122 10.1667 0.0501037 -3.46346
281 1 -0.148325 12.1461 -0.081849 -3.4673
282 1 3.1068 10.2689 45.3775 -3.49122
283 1 5.07348 12.0336 -1.99037 -3.51706
284 1 5.19775 10.3037 0.0254554 -3.48746
285 1 3.16694 11.8238 -0.172535 -3.449
286 1 6.95363 10.4804 45.5252 -3.4235
287 1 8.84025 12.0117 -1.9913 -3.39584
288 1 8.86867 10.4426 -0.0377129 -3.483
289 1 6.93803 12.1264 -0.056832 -3.47521
290 1 10.5843 10.228 -1.95719 -3.50403
291 1 12.4233 11.8948 45.4802 -2.87144
292 1 12.6141 10.1122 0.00646621 -3.31902
293 1 10.8168 11.8358 0.0120863 -3.29197
294 1 14.15 10.0381 45.6187 -2.70497
295 1 -10.1713 13.8092 45.5057 -2.74817
296 1 -8.54841 13.8574 0.0505422 -3.05148
297 1 -7.10457 13.861 -2.11598 -3.3448
298 1 -5.19205 15.6136 -2.19543 -2.97552
299 1 -5.01892 13.8002 -0.153378 -3.44424
300 1 -6.68343 15.5938 -0.224123 -2.69494
301 1 -3.47328 13.7585 -2.28474 -3.46671
302 1 -1.78086 15.6715 45.3715 -3.09156
303 1 -1.84374 13.8671 -0.161504 -3.39143
304 1 -3.4093 15.6467 -0.249883 -2.98805
305 1 -0.0536809 14.006 45.251 -3.45639
306 1 1.84117 15.6992 45.4779 -3.08485
307 1 1.59056 13.8343 -0.11425 -3.48258
308 1 -0.275592 15.6639 -0.0579512 -3.10903
309 1 3.33423 13.7322 -2.05656 -3.4691
310 1 5.15631 15.4101 45.3032 -2.99429
311 1 5.03916 13.6883 -0.0557774 -3.47665
312 1 3.3864 15.6021 -0.0951164 -2.95288
313 1 7.00253 13.6373 45.4858 -3.33771
314 1 8.91873 13.8251 -0.19389 -3.07785
315 1 6.86511 15.4029 -0.136067 -2.70794
316 1 10.5454 13.6613 -2.03532 -2.70275
317 1 -0.113544 17.3119 45.4387 -2.31076
318 1 -5.55839 -15.3987 1.89608 -2.96627
319 1 -7.38907 -15.1078 3.89456 -2.70416
320 1 -1.658 -15.3986 2.05966 -3.02828
321 1 -3.8028 -15.5355 3.84923 -2.94406
322 1 0.211436 -16.9908 1.65753 -2.36287
323 1 2.05299 -15.4092 1.91513 -3.07825
324 1 0.14069 -15.5196 3.64694 -3.03972
325 1 5.60808 -15.0692 1.89382 -2.96321
326 1 3.7917 -15.1343 3.90022 -3.01934
327 1 7.50146 -14.9765 3.71011 -2.70635
328 1 -12.7804 -11.6999 2.03109 -2.83199
329 1 -10.971 -13.4447 1.797 -2.69573
330 1 -9.03044 -11.8438 1.92848 -3.41735
331 1 -9.25268 -13.54 3.90541 -3.10649
332 1 -11.1495 -11.94 3.87884 -3.24858
333 1 -7.40222 -13.6335 1.91367 -3.33267
334 1 -5.41924 -12.1062 1.9101 -3.50004
335 1 -5.38054 -13.7761 3.98465 -3.33875
336 1 -7.18597 -11.9945 4.00589 -3.50195
337 1 -3.69323 -13.8154 2.00845 -3.39681
338 1 -1.81144 -12.1889 1.86595 -3.5187
339 1 -1.94434 -13.7689 3.81211 -3.42069
340 1 -3.62254 -12.0544 3.77264 -3.45902
341 1 0.0764056 -13.8865 1.77083 -3.42551
342 1 1.6196 -11.9341 1.91767 -3.48922
343 1 1.6756 -13.643 3.85157 -3.41169
344 1 -0.0341038 -11.9946 3.98804 -3.46404
345 1 3.56903 -13.5048 1.96488 -3.43149
346 1 5.40883 -11.7838 1.72229 -3.46761
347 1 5.60431 -13.4814 3.71091 -3.40535
348 1 3.49707 -11.9955 3.85321 -3.48676
349 1 7.42266 -13.3514 1.73996 -3.34804
350 1 9.19959 -11.5822 1.86359 -3.32939
351 1 9.41924 -13.3998 3.57542 -3.08444
352 1 7.52638 -11.9448 3.80856 -3.46393
353 1 11.1678 -13.0107 1.71909 -2.78457
354 1 13.1358 -11.6218 1.90394 -2.75699
355 1 11.2581 -11.7779 3.79775 -3.28626
356 1 -14.5048 -9.909 1.99313 -2.74992
357 1 -12.6164 -8.41982 1.93722 -3.33708
358 1 -12.8643 -10.0003 3.87884 -3.36638
359 1 -14.89 -8.21566 4.07795 -2.98176
360 1 -10.8695 -10.2127 1.81699 -3.43416
361 1 -8.88708 -8.69588 1.98623 -3.51423
362 1 -9.23342 -10.4904 4.00062 -3.46034
363 1 -10.7306 -8.63418 3.82728 -3.48859
364 1 -7.14806 -10.3689 1.99638 -3.47042
365 1 -5.36662 -8.65594 1.92445 -3.49019
366 1 -5.4232 -10.3384 3.93834 -3.4838
367 1 -7.26691 -8.62958 3.92469 -3.50266
368 1 -3.44682 -10.2418 1.88225 -3.47221
369 1 -1.84572 -8.45549 1.94648 -3.46824
370 1 -1.8443 -10.3139 3.92294 -3.51344
371 1 -3.65364 -8.53819 3.72803 -3.4334
372 1 -0.119547 -10.2901 1.83048 -3.4753
373 1 1.69629 -8.65547 1.93036 -3.50587
374 1 1.72661 -10.1577 3.91217 -3.44079
375 1 -0.0498295 -8.50633 3.86048 -3.493
376 1 3.43808 -10.3278 1.92663 -3.4733
377 1 5.22332 -8.63558 1.91218 -3.50437
378 1 5.4314 -10.5219 3.76956 -3.48004
379 1 3.54919 -8.76296 3.88863 -3.4361
380 1 7.24178 -10.1457 1.90255 -3.48976
381 1 9.09352 -8.57062 1.75456 -3.51332
382 1 9.18482 -10.1933 3.77985 -3.45044
383 1 7.0073 -8.71343 3.91418 -3.41857
384 1 11.1462 -10.1792 1.94966 -3.45858
385 1 12.8705 -8.3839 2.07704 -3.38282
386 1 13.0924 -9.93446 4.03502 -3.30455
387 1 11.0329 -8.55253 3.86611 -3.46185
388 1 15.0223 -9.45941 2.11838 -2.68656
389 1 14.8143 -8.07265 4.33947 -3.00847
390 1 -16.1628 -5.163 1.65978 -2.95151
391 1 -16.429 -6.28283 3.76461 -2.69948
392 1 -14.5208 -7.00504 2.16845 -3.28567
393 1 -12.5813 -5.27602 1.95877 -3.48708
394 1 -12.5518 -7.04054 3.88163 -3.45897
395 1 -14.2824 -5.29044 3.93212 -3.44821
396 1 -10.7834 -6.82892 1.89182 -3.49481
397 1 -8.8453 -5.24975 1.97848 -3.45254
398 1 -8.94369 -6.89593 3.69204 -3.42835
399 1 -10.8487 -5.354 3.89474 -3.42789
400 1 -7.05114 -6.92314 1.99634 -3.4851
401 1 -5.47685 -5.11628 1.96452 -3.5094
402 1 -5.3864 -6.98244 3.89909 -3.48885
403 1 -7.16057 -5.12276 3.99049 -3.52098
404 1 -3.61482 -6.82744 1.97791 -3.47106
405 1 -1.89204 -5.17609 1.88773 -3.48163
406 1 -1.81891 -6.72499 3.87688 -3.52544
407 1 -3.6807 -5.04292 3.87254 -3.51445
408 1 -0.0465893 -6.77224 1.93364 -3.49661
409 1 1.86516 -5.19737 2.01997 -3.43728
410 1 1.68826 -6.88118 3.84924 -3.48605
411 1 0.0800914 -5.15991 3.84389 -3.40264
412 1 3.51616 -6.91916 1.84092 -3.47086
413 1 5.325 -5.33414 1.92506 -3.50861
414 1 5.21578 -7.08131 3.87271 -3.44815
415 1 3.58066 -5.23066 3.9387 -3.51405
416 1 7.12379 -6.95476 1.80316 -3.51015
417 1 9.01814 -5.35134 1.8247 -3.50042
418 1 8.84712 -7.03327 3.80585 -3.51423
419 1 7.16003 -5.3682 3.85479 -3.50197
420 1 10.9468 -6.90597 2.09709 -3.41575
421 1 12.6192 -5.20259 2.03818 -3.49254
422 1 12.7959 -6.60748 4.08064 -3.45778
423 1 10.7732 -5.20728 3.79686 -3.45553
424 1 14.7771 -6.89375 2.00127 -3.32938
425 1 16.3021 -4.7756 1.88169 -2.95525
426 1 16.2524 -6.37473 3.99654 -2.69256
427 1 14.3636 -4.84633 3.96454 -3.42569
428 1 -16.0277 -1.92561 1.87191 -3.13551
429 1 -15.9619 -3.54406 3.7832 -3.0775
430 1 -14.1881 -3.50381 2.02673 -3.44272
431 1 -12.5876 -1.64839 1.98593 -3.49367
432 1 -12.45 -3.63801 3.98143 -3.41941
433 1 -14.2957 -1.87866 3.93495 -3.43381
434 1 -10.7945 -3.5479 1.95681 -3.53
435 1 -9.01859 -1.89201 2.07338 -3.3964
436 1 -9.21022 -3.55365 3.97666 -3.51257
437 1 -11.0069 -1.82142 4.27735 -3.34608
438 1 -7.29184 -3.46308 2.02253 -3.44036
439 1 -5.43179 -1.78252 1.8438 -3.47527
440 1 -5.34131 -3.32381 4.0172 -3.45107
441 1 -7.28338 -1.7576 4.02308 -3.45781
442 1 -3.55313 -3.32042 1.90757 -3.48724
443 1 -1.75969 -1.74256 1.91673 -3.43098
444 1 -1.78083 -3.51391 3.80698 -3.50002
445 1 -3.53263 -1.88243 4.00344 -3.43858
446 1 -0.00731635 -3.50739 1.90953 -3.55874
447 1 1.85961 -1.67839 2.06755 -3.45306
448 1 1.77827 -3.62067 3.90243 -3.4296
449 1 0.0336768 -1.85344 3.94768 -3.50871
450 1 3.57337 -3.54457 1.91725 -3.47951
451 1 5.45389 -1.96516 2.04443 -3.46939
452 1 5.45344 -3.4796 3.86018 -3.43303
453 1 3.60547 -1.8711 4.03671 -3.50291
454 1 7.28471 -3.64564 1.81957 -3.48516
455 1 8.94583 -1.83098 1.82125 -3.51413
456 1 8.91269 -3.65651 3.7708 -3.473
457 1 7.22577 -1.98733 3.92862 -3.42413
458 1 10.7519 -3.56477 1.90927 -3.52453
459 1 12.6528 -1.70514 1.96046 -3.47733
460 1 12.443 -3.35193 3.85285 -3.48947
461 1 10.5612 -1.78326 3.83471 -3.50981
462 1 14.3582 -3.37545 1.77524 -3.37846
463 1 15.9995 -1.65474 1.80291 -3.08768
464 1 16.045 -3.16441 3.80956 -3.02195
465 1 14.295 -1.68181 4.04985 -3.44205
466 1 -17.5114 0.0330063 2.2172 -2.55673
467 1 -16.1026 1.91478 1.62019 -3.11884
468 1 -16.0952 -0.244848 4.09781 -3.0976
469 1 -14.5032 0.0269778 1.99096 -3.49959
470 1 -12.5875 1.77493 1.85741 -3.39963
471 1 -12.8362 0.154173 3.8699 -3.46222
472 1 -14.6592 1.64822 3.73497 -3.43681
473 1 -10.8526 -0.00441841 2.11278 -3.44425
474 1 -9.0668 1.60687 2.00257 -3.49492
475 1 -9.15248 -0.0765354 4.05858 -3.48374
476 1 -10.9022 1.65631 3.90493 -3.44873
477 1 -7.32753 -0.226649 1.9679 -3.4742
478 1 -5.3989 1.48421 1.98985 -3.48673
479 1 -5.4721 -0.3445 3.92732 -3.46767
480 1 -7.27788 1.47313 3.90792 -3.51767
481 1 -3.51242 -0.235766 1.96653 -3.47195
482 1 -1.71121 1.50286 1.86781 -3.51089
483 1 -1.74084 -0.239769 3.9738 -3.46951
484 1 -3.55872 1.35142 3.9508 -3.51063
485 1 0.084636 -0.202123 1.83318 -3.41261
486 1 1.72488 1.51705 1.94319 -3.48124
487 1 1.8524 -0.137809 4.02035 -3.46395
488 1 0.0215697 1.58141 3.82904 -3.51306
489 1 3.69252 -0.143775 1.98716 -3.49674
490 1 5.36634 1.63569 1.8609 -3.44723
491 1 5.56816 -0.141732 3.88965 -3.46526
492 1 3.62563 1.45878 3.86411 -3.49875
493 1 7.03541 -0.0484521 2.0532 -3.4449
494 1 8.93341 1.67259 1.89508 -3.50203
495 1 8.89262 0.058049 3.80236 -3.5265
496 1 7.00957 1.82851 3.88806 -3.41136
497 1 10.7263 -0.055531 1.76936 -3.48762
498 1 12.4457 1.74888 1.75861 -3.48352
499 1 12.3296 0.03082 3.64248 -3.39715
500 1 10.7064 1.66572 3.86531 -3.46572
501 1 14.2594 0.164194 1.90556 -3.46662
502 1 15.9559 1.95036 2.11807 -3.09503
503 1 16.0743 0.0304031 4.09604 -3.21943
504 1 14.2019 1.53022 3.89138 -3.41194
505 1 17.4242 0.135721 1.81941 -2.33785
506 1 -15.7843 5.18715 1.80838 -3.03479
507 1 -16.0315 3.89845 4.04814 -3.04034
508 1 -14.1097 3.44469 1.83094 -3.36991
509 1 -12.4722 5.39713 2.00224 -3.51438
510 1 -12.4277 3.53569 3.80447 -3.48532
511 1 -14.1291 5.29394 3.80603 -3.30183
512 1 -10.7847 3.46514 1.98714 -3.50822
513 1 -8.92081 5.05226 1.85355 -3.47112
514 1 -8.91794 3.46069 3.92367 -3.48389
515 1 -10.6444 5.37843 3.75534 -3.52693
516 1 -7.12956 3.30931 1.99027 -3.5184
517 1 -5.38984 5.03721 1.96779 -3.46455
518 1 -5.46825 3.21 3.99362 -3.5084
519 1 -7.21348 5.03115 3.86719 -3.43985
520 1 -3.72637 3.1296 1.94888 -3.46915
521 1 -1.83399 4.95149 1.9619 -3.50003
522 1 -1.85224 3.16211 3.9323 -3.48864
523 1 -3.69326 4.84823 3.80091 -3.47107
524 1 0.0871176 3.3272 1.84833 -3.48615
525 1 1.70475 5.27077 1.92766 -3.51378
526 1 1.78625 3.32208 3.83872 -3.52376
527 1 -0.135526 5.01345 3.94254 -3.51604
528 1 3.52599 3.23815 1.85235 -3.5148
529 1 5.36172 5.06733 2.05392 -3.50328
530 1 5.18724 3.35387 3.97213 -3.47144
531 1 3.46071 5.18822 3.79821 -3.49467
532 1 7.1147 3.34785 1.84908 -3.48888
533 1 8.89644 5.15663 1.96126 -3.472
534 1 8.75922 3.27026 3.80161 -3.39664
535 1 7.14112 5.17031 3.98703 -3.53885
536 1 10.6444 3.52549 1.87176 -3.46674
537 1 12.2278 5.28787 1.96325 -3.44788
538 1 12.5772 3.51711 3.69504 -3.44918
539 1 10.4767 5.0023 3.97306 -3.49884
540 1 14.1908 3.54715 1.91452 -3.42638
541 1 16.1821 4.7775 2.1438 -2.88606
542 1 15.8499 3.37195 4.1009 -3.06934
543 1 14.1034 5.24676 3.93237 -3.30421
544 1 -15.816 6.75186 3.90483 -2.745
545 1 -14.177 7.11058 2.02227 -3.31078
546 1 -12.2693 8.5446 1.84727 -3.40125
547 1 -12.4217 7.04036 3.97409 -3.45609
548 1 -14.1531 8.66601 3.91103 -3.0724
549 1 -10.4856 6.94894 1.89659 -3.47685
550 1 -8.62565 8.61724 1.97253 -3.46069
551 1 -8.68296 7.0585 4.00522 -3.49981
552 1 -10.5349 8.67791 3.71984 -3.4833
553 1 -7.10772 6.83542 2.05014 -3.4762
554 1 -5.2125 8.69757 1.82962 -3.49668
555 1 -5.41962 6.6012 3.96702 -3.46304
556 1 -6.80841 8.67444 3.81785 -3.51812
557 1 -3.61912 6.8362 2.05937 -3.46809
558 1 -2.02918 8.51495 1.87238 -3.41185
559 1 -1.97166 6.63797 3.98329 -3.49408
560 1 -3.68123 8.55058 4.05548 -3.49342
561 1 -0.255447 6.74624 1.99852 -3.4922
562 1 1.66706 8.40857 1.95444 -3.47411
563 1 1.69498 6.90273 3.96774 -3.50432
564 1 -0.247248 8.46234 3.85809 -3.49189
565 1 3.68754 6.97119 1.87594 -3.47291
566 1 5.48995 8.6547 2.09037 -3.5011
567 1 5.27743 6.88562 3.9318 -3.52046
568 1 3.51617 8.59608 4.00639 -3.48465
569 1 7.12816 6.73693 2.09203 -3.46107
570 1 8.76736 8.75614 2.04422 -3.50722
571 1 9.01146 6.90259 4.14017 -3.41901
572 1 7.17373 8.49861 3.88732 -3.46116
573 1 10.609 6.97785 1.99809 -3.47273
574 1 12.4196 8.63076 2.14394 -3.44734
575 1 12.3171 6.84746 3.98368 -3.53407
576 1 10.539 8.67302 3.81872 -3.46345
577 1 14.1715 6.83537 1.93052 -3.38873
578 1 15.9045 6.58129 3.75739 -2.65558
579 1 14.2673 8.6144 3.90429 -3.09684
580 1 -13.909 10.2987 1.85722 -2.74873
581 1 -12.0737 12.2604 2.00194 -2.83504
582 1 -12.4068 10.3238 3.71874 -3.29891
583 1 -10.5862 10.3048 1.84913 -3.49727
584 1 -8.77588 12.0855 1.94294 -3.4351
585 1 -8.79775 10.3235 3.87609 -3.44835
586 1 -10.3689 12.058 3.82615 -3.32298
587 1 -6.94371 10.3745 1.96834 -3.42862
588 1 -5.35238 12.1632 1.79088 -3.47436
589 1 -5.0989 10.4547 3.89169 -3.49105
590 1 -7.0977 12.0151 3.75581 -3.42169
591 1 -3.35477 10.4863 1.8155 -3.46793
592 1 -1.48189 12.006 2.04786 -3.45518
593 1 -1.90058 10.2853 4.02478 -3.46939
594 1 -3.31117 12.1123 4.03374 -3.35987
595 1 -0.150423 9.9802 1.90828 -3.43064
596 1 1.39336 11.9008 1.89654 -3.52781
597 1 1.59751 10.0538 3.88195 -3.46322
598 1 -0.0225114 11.9419 4.01997 -3.48544
599 1 3.30719 10.174 1.95065 -3.49534
600 1 5.22451 12.0817 1.9514 -3.386
601 1 5.44875 10.1915 4.06838 -3.45807
602 1 3.26095 11.7824 3.75127 -3.43202
603 1 7.06651 10.6118 1.87785 -3.42136
604 1 8.8702 12.0782 1.8135 -3.38462
605 1 8.82201 10.5066 3.92454 -3.52387
606 1 7.08172 12.2604 3.91015 -3.43878
607 1 10.5498 10.3317 1.92092 -3.43505
608 1 12.4742 11.7913 1.9505 -2.88608
609 1 12.5211 10.3223 3.96829 -3.2896
610 1 10.7819 12.0341 3.96075 -3.27824
611 1 14.3011 10.1018 1.94154 -2.69669
612 1 -10.2077 13.9944 1.96829 -2.67612
613 1 -8.59388 13.8984 4.06807 -3.10824
614 1 -7.13153 13.9043 1.8629 -3.28265
615 1 -5.02869 15.5316 1.812 -2.98352
616 1 -5.27112 13.5663 3.9428 -3.39249
617 1 -6.64595 15.4652 3.92108 -2.7449
618 1 -3.37568 13.6504 1.9489 -3.47235
619 1 -1.97313 15.7815 2.02328 -3.02806
620 1 -1.72661 13.8028 3.83949 -3.42475
621 1 -3.69308 15.4468 4.0352 -3.05354
622 1 0.0174083 13.9227 1.83709 -3.48862
623 1 2.02151 15.504 1.92352 -3.08489
624 1 1.77695 13.6098 4.03687 -3.3992
625 1 0.33884 15.5679 3.86454 -3.16761
626 1 3.34455 13.528 1.88721 -3.4314
627 1 4.95238 15.4517 1.75483 -3.0253
628 1 5.10675 13.5417 3.7712 -3.29593
629 1 3.57707 15.4533 3.93881 -3.07806
630 1 7.0398 13.8075 1.8102 -3.32396
631 1 8.88298 13.7841 4.02364 -2.96661
632 1 6.59587 15.2804 3.71554 -2.7467
633 1 10.8014 13.6171 1.66953 -2.58223
634 1 0.138862 17.0001 1.67472 -2.34496
635 1 -5.50779 -15.1732 5.93793 -2.98308
636 1 -7.18007 -15.2586 7.89883 -2.72998
637 1 -1.99172 -15.4637 5.71484 -3.01651
638 1 -3.74631 -15.3016 7.80004 -3.01807
639 1 0.0174837 -16.6569 5.58371 -2.4212
640 1 2.02323 -15.2603 5.84313 -3.08854
641 1 0.0845904 -15.7783 7.85347 -3.05256
642 1 5.64864 -14.8481 5.8597 -3.00187
643 1 3.80755 -15.2986 7.62473 -2.90831
644 1 7.22911 -15.0868 7.65849 -2.72338
645 1 -12.905 -11.8444 5.59191 -2.77421
646 1 -10.8878 -13.327 5.97533 -2.79296
647 1 -9.08901 -11.7323 6.05398 -3.29807
648 1 -9.1267 -13.6643 7.97368 -3.08833
649 1 -10.9416 -11.9079 8.0719 -3.29161
650 1 -7.69867 -13.6657 6.00767 -3.27425
651 1 -5.57875 -12.0802 6.03656 -3.48191
652 1 -5.42917 -13.5533 7.99738 -3.38636
653 1 -7.23709 -11.9397 8.10542 -3.47312
654 1 -3.64897 -13.7065 5.76607 -3.40213
655 1 -1.78074 -12.0459 5.8022 -3.49627
656 1 -1.70747 -13.9185 7.90314 -3.41574
657 1 -3.42358 -12.0586 7.79535 -3.48423
658 1 -0.0158286 -13.8836 5.9842 -3.50098
659 1 1.70203 -12.0665 5.90262 -3.44283
660 1 1.73862 -13.7685 7.92538 -3.48411
661 1 -0.131878 -12.0366 7.88128 -3.49331
662 1 3.69499 -13.4267 6.03502 -3.38277
663 1 5.65409 -12.0006 5.91104 -3.48482
664 1 5.46148 -13.5046 7.97793 -3.37586
665 1 3.52491 -12.0417 8.07249 -3.4011
666 1 7.58694 -13.5267 5.78548 -3.27438
667 1 9.19983 -11.6422 5.67432 -3.37841
668 1 9.24735 -13.6633 7.76521 -3.03203
669 1 7.42434 -11.9431 7.81757 -3.44473
670 1 10.7218 -13.4068 5.78914 -2.70448
671 1 12.6828 -11.6031 5.99462 -2.84575
672 1 11.1036 -11.8248 8.00442 -3.27822
673 1 -14.382 -9.91005 5.90815 -2.75483
674 1 -12.6341 -8.47429 5.99356 -3.32161
675 1 -12.8844 -10.4608 7.839 -3.23288
676 1 -14.1045 -8.3445 8.04191 -3.17584
677 1 -11.0491 -10.316 5.98254 -3.50303
678 1 -9.10856 -8.6157 5.82799 -3.4769
679 1 -8.98072 -10.1951 7.87105 -3.48908
680 1 -11.0483 -8.66618 7.98189 -3.51389
681 1 -7.19288 -10.3745 5.83558 -3.42706
682 1 -5.31269 -8.75476 5.78335 -3.49821
683 1 -5.38056 -10.339 7.84383 -3.50967
684 1 -7.10572 -8.48822 7.6052 -3.49103
685 1 -3.63717 -10.4968 5.9184 -3.48135
686 1 -1.82049 -8.59035 5.85157 -3.47793
687 1 -1.73476 -10.1673 7.63663 -3.43634
688 1 -3.57144 -8.60815 7.74811 -3.46914
689 1 0.0700806 -10.2702 5.8586 -3.45287
690 1 1.65795 -8.51032 5.89137 -3.49219
691 1 1.55992 -10.2956 7.77328 -3.50061
692 1 -0.098714 -8.47846 7.85847 -3.47565
693 1 3.43359 -10.4746 6.0385 -3.50496
694 1 5.27157 -8.76137 5.72633 -3.44112
695 1 5.20167 -10.2957 7.84412 -3.454
696 1 3.57206 -8.64385 7.99275 -3.45884
697 1 7.18352 -10.1797 5.8264 -3.43133
698 1 9.12443 -8.54631 6.01673 -3.46724
699 1 9.08052 -10.29 7.87414 -3.46056
700 1 7.13361 -8.64904 7.79135 -3.51353
701 1 11.0181 -9.96566 5.87205 -3.39953
702 1 12.8653 -8.15836 6.04663 -3.40666
703 1 12.7528 -9.99736 7.87755 -3.30632
704 1 10.9049 -8.45365 7.79634 -3.48163
705 1 14.5346 -9.76297 6.12259 -2.74214
706 1 14.7217 -8.07304 8.04209 -3.09438
707 1 -16.2653 -5.1566 5.9479 -2.95867
708 1 -16.1707 -6.71271 7.90411 -2.65898
709 1 -14.6002 -6.97666 6.08657 -3.26631
710 1 -12.6014 -5.37749 5.91519 -3.50747
711 1 -12.5473 -6.48857 8.06376 -3.40634
712 1 -14.4887 -5.07018 7.89931 -3.35118
713 1 -10.7867 -7.06442 6.07272 -3.35332
714 1 -8.94514 -5.30025 6.07739 -3.48069
715 1 -9.1587 -6.99365 7.83293 -3.45809
716 1 -10.7858 -5.03656 7.90165 -3.41676
717 1 -7.24371 -6.99793 5.69964 -3.43353
718 1 -5.52498 -5.19535 5.7864 -3.47001
719 1 -5.18069 -6.86943 7.7336 -3.42322
720 1 -7.0752 -5.29053 7.85199 -3.50748
721 1 -3.47761 -6.83533 5.90116 -3.49596
722 1 -1.86814 -5.07002 5.94727 -3.45221
723 1 -1.82761 -6.77013 7.93319 -3.51197
724 1 -3.64057 -5.06022 7.91536 -3.4462
725 1 -0.184573 -6.78664 5.7716 -3.49497
726 1 1.85329 -5.16011 5.83716 -3.51456
727 1 1.81793 -6.95733 7.93094 -3.47381
728 1 0.0292597 -5.31464 7.80229 -3.445
729 1 3.5994 -6.97912 5.89104 -3.47728
730 1 5.30917 -5.26114 5.92889 -3.50674
731 1 5.53465 -6.84844 7.89488 -3.38505
732 1 3.72648 -5.25723 7.89631 -3.47276
733 1 7.08853 -7.06549 5.79111 -3.54289
734 1 9.04669 -5.47268 5.81748 -3.40425
735 1 8.96435 -6.96561 7.78424 -3.43323
736 1 7.25838 -5.33949 7.74999 -3.42833
737 1 10.896 -6.77627 5.69502 -3.39846
738 1 12.5969 -5.10652 6.0058 -3.4293