ITEM: TIMESTEP
170000
ITEM: NUMBER OF ATOMS
3804
ITEM: BOX BOUNDS ss ss pp
-1.7516975776413737e+01 1.8036260890853995e+01
-1.8063753659838365e+01 1.6692642950690839e+01
-3.6873000000000000e+00 4.7067300000000003e+01
ITEM: ATOMS id type x y z c_peratom
1 1 -5.76664 -15.0856 -3.18211 -2.97388
2 1 -7.4092 -15.0086 -1.28104 -2.72874
3 1 -2.19123 -15.0324 -2.94237 -2.95057
4 1 -4.04084 -14.9991 -1.1234 -2.91123
5 1 0.185315 -15.4922 -2.69008 -2.73145
6 1 2.00437 -15.6122 46.1391 -2.87174
7 1 0.241647 -13.9062 -0.689584 -3.19902
8 1 6.01406 -14.5154 46.6817 -2.84245
9 1 4.32206 -14.614 -2.11042 -3.00021
10 1 6.30667 -13.5098 0.369716 -2.82654
11 1 -12.6981 -11.1978 -3.19847 -2.83941
12 1 -11.0491 -12.987 -3.05409 -2.716
13 1 -9.26598 -11.3292 -2.79249 -3.4441
14 1 -9.29317 -13.346 -1.22284 -3.06883
15 1 -11.21 -11.3879 -1.03639 -3.32145
16 1 -7.54634 -13.2648 -3.04611 -3.3759
17 1 -5.66338 -11.3922 -3.02393 -3.47396
18 1 -5.8123 -13.2534 -1.21731 -3.42037
19 1 -7.41622 -11.4314 -1.14915 -3.46574
20 1 -4.04666 -13.2716 -2.99784 -3.46792
21 1 -2.21751 -13.1895 45.7228 -3.45531
22 1 -2.07403 -13.4731 -1.01497 -3.33491
23 1 -3.88517 -11.7074 -0.852278 -3.4892
24 1 -0.4756 -14.9037 45.8655 -3.19026
25 1 1.33834 -13.127 45.6873 -3.50782
26 1 1.92399 -13.8992 -2.77978 -3.31114
27 1 -0.620912 -13.1703 -3.10149 -3.45027
28 1 3.71737 -13.8921 46.1756 -3.33291
29 1 5.39555 -12.0861 46.3482 -3.48436
30 1 5.98868 -12.7842 -2.15987 -3.25617
31 1 3.63617 -12.2838 -2.6854 -3.42991
32 1 7.8976 -12.7199 46.8213 -3.10651
33 1 9.8666 -11.1051 46.8795 -3.16871
34 1 8.37358 -11.7525 0.387404 -2.98302
35 1 7.93709 -11.05 -2.05968 -3.37727
36 1 10.3431 -11.6234 -1.44455 -2.68334
37 1 12.0613 -9.98385 -1.4482 -2.83725
38 1 10.3621 -10.1012 0.553047 -3.2486
39 1 -14.6386 -9.52194 -2.73271 -2.80776
40 1 -12.8185 -7.84945 -2.61314 -3.47778
41 1 -12.807 -9.56125 -0.931564 -3.31016
42 1 -14.5684 -7.8995 -0.618399 -3.2318
43 1 -11.0083 -9.4789 -2.88123 -3.45603
44 1 -9.32745 -7.80105 -2.75875 -3.48898
45 1 -9.29708 -9.66999 -1.04849 -3.49315
46 1 -10.9305 -7.84687 -0.737265 -3.50505
47 1 -7.51439 -9.60657 -2.85032 -3.49174
48 1 -5.77954 -9.577 46.1882 -3.4695
49 1 -5.70794 -9.73996 -1.11701 -3.46809
50 1 -7.43398 -7.91253 -0.854548 -3.51542
51 1 -4.01579 -11.4003 45.9272 -3.47674
52 1 -2.18502 -9.59978 45.9921 -3.4756
53 1 -2.35804 -11.4469 -2.71877 -3.45066
54 1 -3.726 -9.53942 -2.81167 -3.44072
55 1 -0.469969 -11.3447 45.8199 -3.472
56 1 1.40668 -9.51265 46.0445 -3.50014
57 1 1.1866 -11.4895 -3.13207 -3.48347
58 1 -0.477607 -9.69014 -2.93847 -3.49892
59 1 3.04702 -11.3125 45.7671 -3.50181
60 1 4.9631 -9.59745 45.8951 -3.47099
61 1 5.55039 -10.4001 -2.31096 -3.43424
62 1 3.26079 -9.92436 -2.7673 -3.45188
63 1 7.16543 -10.3371 46.3732 -3.49645
64 1 8.98334 -8.4644 46.7385 -3.47701
65 1 9.6148 -9.26188 -1.78403 -3.43803
66 1 7.30332 -8.54987 -2.24107 -3.46574
67 1 11.3751 -9.12474 47.0621 -3.26073
68 1 13.092 -7.42641 -3.55785 -3.2251
69 1 12.1637 -8.44596 0.711273 -3.25248
70 1 11.316 -7.53956 -1.60252 -3.48495
71 1 13.8379 -8.07352 -1.1404 -2.70151
72 1 13.924 -6.59107 0.986105 -3.12032
73 1 -16.3309 -4.60048 -2.34917 -2.77577
74 1 -16.434 -6.10754 -0.539475 -2.81471
75 1 -14.3084 -6.00889 -2.50584 -3.22208
76 1 -12.7704 -4.14493 -2.32797 -3.49204
77 1 -12.7181 -6.14842 -0.570454 -3.48929
78 1 -14.4639 -4.57279 -0.517716 -3.45139
79 1 -10.9889 -5.94063 -2.58725 -3.53158
80 1 -9.12897 -6.00527 46.1994 -3.51145
81 1 -9.22436 -6.18445 -0.702262 -3.46575
82 1 -10.8221 -4.44911 -0.541437 -3.52123
83 1 -7.27993 -7.73234 46.165 -3.47856
84 1 -5.57405 -5.99346 46.2522 -3.49119
85 1 -5.63567 -7.86463 -2.71211 -3.50312
86 1 -7.38279 -6.18894 -2.55932 -3.48442
87 1 -3.86189 -7.69432 46.0453 -3.5068
88 1 -1.96611 -5.95469 46.3989 -3.46077
89 1 -2.02019 -7.90904 -2.60721 -3.43288
90 1 -3.7526 -6.14328 -2.64436 -3.53635
91 1 -0.411657 -7.77273 46.0573 -3.48467
92 1 1.39223 -5.88521 46.0503 -3.48748
93 1 1.47415 -7.8068 -2.70564 -3.50392
94 1 -0.329792 -6.11009 -2.51349 -3.4974
95 1 3.25073 -7.66516 46.1378 -3.47487
96 1 5.02071 -5.87737 46.153 -3.45281
97 1 4.93382 -8.05547 -2.71328 -3.48235
98 1 3.27588 -6.19373 -2.7301 -3.47326
99 1 6.65305 -7.76241 46.1138 -3.52299
100 1 8.47864 -6.0377 46.3448 -3.5081
101 1 9.00559 -6.88407 -2.12078 -3.45597
102 1 6.50714 -6.15687 -2.71209 -3.52571
103 1 10.7743 -6.73693 46.757 -3.47839
104 1 12.541 -4.89451 46.9521 -3.50224
105 1 13.249 -5.61564 -1.34423 -3.3543
106 1 10.7542 -5.03891 -1.98683 -3.52349
107 1 14.8884 -5.76997 -3.1982 -3.103
108 1 16.7573 -3.71897 -3.101 -2.76436
109 1 15.6134 -4.71689 1.25537 -2.72332
110 1 15.1237 -3.95517 -1.27151 -3.21306
111 1 -15.5521 -0.348007 -2.81309 -3.07644
112 1 -16.3774 -2.99588 -0.401423 -2.89829
113 1 -14.7533 -2.62837 -2.39582 -3.31381
114 1 -12.8509 -2.55057 46.4672 -3.5012
115 1 -12.7182 -2.70323 -0.300445 -3.47613
116 1 -14.768 -1.13032 -0.498374 -3.33017
117 1 -10.9864 -4.2809 46.3998 -3.50499
118 1 -9.19349 -2.4217 46.4514 -3.47567
119 1 -9.14838 -4.19986 -2.53697 -3.47186
120 1 -10.9382 -2.50166 -2.4361 -3.47526
121 1 -7.46715 -4.26002 46.3631 -3.51621
122 1 -5.64077 -2.54809 46.5029 -3.53106
123 1 -5.68594 -4.49629 -2.53901 -3.51002
124 1 -7.49095 -2.60015 -2.31962 -3.48259
125 1 -3.83858 -4.19324 46.4509 -3.46483
126 1 -2.15937 -2.50819 46.4042 -3.43026
127 1 -2.02491 -4.24269 -2.45074 -3.51155
128 1 -3.90392 -2.65631 -2.45654 -3.45799
129 1 -0.34072 -4.22982 46.4571 -3.47065
130 1 1.33174 -2.40144 46.4935 -3.53164
131 1 1.45251 -4.26792 -2.55923 -3.50325
132 1 -0.304318 -2.51874 -2.29967 -3.50551
133 1 3.11917 -4.27394 46.4343 -3.47449
134 1 4.90858 -2.44373 46.4254 -3.51819
135 1 4.80366 -4.22917 -2.50643 -3.44142
136 1 3.18617 -2.59238 -2.3861 -3.43503
137 1 6.74094 -4.12592 46.2786 -3.49799
138 1 8.49579 -2.44741 46.6902 -3.45131
139 1 8.36461 -4.39066 -2.3303 -3.51234
140 1 6.65638 -2.65918 -2.31449 -3.47844
141 1 10.0645 -4.15542 46.4209 -3.46652
142 1 11.9452 -2.49978 46.6206 -3.52668
143 1 12.4521 -3.28498 -1.64844 -3.4862
144 1 10.07 -2.50792 -2.22132 -3.51197
145 1 14.2597 -3.12905 47.2126 -3.51967
146 1 16.1161 -1.32683 -3.37429 -3.14507
147 1 16.5443 -2.02215 -0.942779 -2.84887
148 1 14.318 -1.48835 -1.5296 -3.44053
149 1 -17.064 1.7173 40.6027 -2.67123
150 1 -16.0528 0.442684 45.6532 -2.90283
151 1 -15.2913 1.16019 -0.793774 -3.18184
152 1 -13.5757 -0.276571 46.0974 -3.48786
153 1 -11.6539 1.60395 46.1608 -3.47385
154 1 -12.8391 -0.928395 -2.16636 -3.49414
155 1 -13.5215 1.30113 -2.47034 -3.45296
156 1 -11.1074 -0.8383 46.5153 -3.51098
157 1 -9.2599 0.925353 46.6025 -3.52267
158 1 -9.25159 -0.866199 -2.29946 -3.42981
159 1 -11.0557 0.8083 -2.23749 -3.51518
160 1 -7.5511 -0.747685 46.6241 -3.43378
161 1 -5.85621 0.953697 46.7968 -3.48315
162 1 -5.59413 -0.838448 -2.36047 -3.50608
163 1 -7.5176 0.754142 -2.06546 -3.48633
164 1 -3.71453 -0.706823 46.4542 -3.50261
165 1 -1.9833 1.17699 46.7653 -3.47406
166 1 -2.16831 -0.97883 -2.36173 -3.49226
167 1 -3.7682 0.966792 -2.17918 -3.51278
168 1 -0.373359 -0.623369 46.5795 -3.51457
169 1 1.40072 1.0981 46.698 -3.52006
170 1 1.51286 -0.808008 -2.17864 -3.48131
171 1 -0.299279 0.858887 -2.02968 -3.51676
172 1 3.17826 -0.627369 46.6287 -3.50935
173 1 4.9034 1.09317 46.8135 -3.50148
174 1 4.96049 -0.807441 -2.30635 -3.51012
175 1 3.05123 1.09184 -2.20692 -3.47207
176 1 6.64324 -0.695764 46.7122 -3.51047
177 1 8.36635 1.16999 46.8584 -3.50188
178 1 8.38742 -0.748874 -2.09724 -3.51204
179 1 6.64255 1.10411 -2.11516 -3.50785
180 1 10.3045 -0.592209 46.6795 -3.49955
181 1 12.1267 0.997513 46.9253 -3.47448
182 1 12.1116 -0.920279 -2.071 -3.47222
183 1 10.2987 0.916086 -2.09826 -3.47533
184 1 13.8252 -0.76 46.8083 -3.42178
185 1 15.3789 1.01934 47.0922 -3.28579
186 1 16.1588 0.451079 -1.39648 -3.1536
187 1 13.7612 0.960353 -1.88522 -3.49688
188 1 17.0572 1.16374 45.1231 -2.73096
189 1 -14.813 4.49559 45.4429 -3.00155
190 1 -15.8147 2.17914 -2.94543 -2.85144
191 1 -14.248 2.16069 45.8117 -3.36146
192 1 -12.3677 4.06829 45.9407 -3.48241
193 1 -11.7304 3.26195 -2.57891 -3.49775
194 1 -14.1864 3.94068 -2.8971 -3.27971
195 1 -10.0071 3.30827 46.3405 -3.4866
196 1 -8.20344 5.09293 46.5864 -3.4575
197 1 -9.27674 2.48965 -2.07635 -3.52318
198 1 -9.92999 4.95796 -2.32781 -3.51988
199 1 -7.5373 2.79741 46.9199 -3.48367
200 1 -5.80287 4.55169 46.9951 -3.50401
201 1 -5.78142 2.67917 -1.98948 -3.49705
202 1 -7.58521 4.52225 -1.90532 -3.47117
203 1 -4.00523 2.77327 46.9359 -3.50596
204 1 -2.15772 4.66101 -3.83298 -3.49534
205 1 -2.0254 2.86852 -2.04717 -3.50674
206 1 -3.96613 4.44453 -1.93816 -3.49812
207 1 -0.220283 2.91331 46.8467 -3.43477
208 1 1.3971 4.59369 46.9973 -3.45865
209 1 1.29461 2.6612 -1.9266 -3.44735
210 1 -0.299934 4.50525 -1.94566 -3.48502
211 1 3.18745 3.04454 46.9528 -3.46174
212 1 4.93167 4.58775 46.8711 -3.41945
213 1 4.80372 2.79012 -1.82843 -3.48078
214 1 3.02347 4.4567 -1.79339 -3.46757
215 1 6.63756 2.82329 46.7941 -3.47021
216 1 8.47435 4.3944 -3.70591 -3.47107
217 1 8.57732 2.7141 -1.9837 -3.45587
218 1 6.7645 4.25637 -1.78764 -3.49758
219 1 10.2614 2.85807 46.7232 -3.45344
220 1 11.9983 4.44283 -3.81624 -3.46703
221 1 11.9209 2.59338 -2.05976 -3.42677
222 1 10.2794 4.43098 -1.86304 -3.44592
223 1 13.8656 2.91969 47.0092 -3.50102
224 1 15.6401 4.58684 -3.53133 -3.06425
225 1 15.6196 2.80256 -1.81463 -3.23855
226 1 13.7943 4.37001 -1.69579 -3.44059
227 1 -14.6402 6.18256 -3.47435 -2.87063
228 1 -12.7927 6.46748 45.419 -3.37641
229 1 -11.1219 8.22141 45.5485 -3.45268
230 1 -12.2928 5.61973 -2.95394 -3.46154
231 1 -13.069 8.0284 -3.11055 -3.13177
232 1 -10.5118 5.69016 45.8798 -3.48196
233 1 -8.69594 7.52835 46.1261 -3.48655
234 1 -8.22056 6.8215 -2.23614 -3.47782
235 1 -10.6662 7.4402 -2.79501 -3.53177
236 1 -6.40729 6.90526 46.6367 -3.50786
237 1 -4.53201 8.68772 46.7556 -3.50401
238 1 -5.66321 6.21012 -1.78306 -3.50292
239 1 -6.47407 8.57402 -1.88452 -3.50279
240 1 -3.85834 6.36705 -3.50493 -3.49258
241 1 -2.06614 8.2036 -3.5286 -3.47362
242 1 -2.05017 6.31371 -1.72917 -3.4813
243 1 -3.89387 7.92867 -1.40452 -3.50396
244 1 -0.392239 6.46173 -3.72195 -3.53776
245 1 1.53399 8.187 -3.54956 -3.48459
246 1 1.51324 6.28243 -1.69054 -3.48802
247 1 -0.311012 7.90483 -1.56001 -3.46263
248 1 3.20576 6.36397 -3.73634 -3.49662
249 1 4.93281 8.09112 -3.38039 -3.47268
250 1 4.9821 6.11096 -1.63446 -3.52499
251 1 3.45569 8.02235 -1.59511 -3.43211
252 1 6.78127 6.17719 -3.54707 -3.53207
253 1 8.50865 8.07158 -3.47584 -3.51781
254 1 8.66673 6.12467 -1.70379 -3.48004
255 1 6.75056 7.87533 -1.42666 -3.49431
256 1 10.2782 6.21843 -3.60701 -3.50368
257 1 11.9494 7.93209 -3.3399 -3.42719
258 1 12.0536 6.11376 -1.55209 -3.47299
259 1 10.3233 7.86926 -1.66962 -3.45971
260 1 13.8917 6.25318 -3.53738 -3.36447
261 1 15.5812 5.96591 -1.49662 -2.74182
262 1 13.7908 7.81239 -1.5142 -3.0887
263 1 -13.4898 8.76618 45.3749 -2.87565
264 1 -11.7885 10.677 45.1257 -2.8655
265 1 -11.3537 9.92624 -3.3811 -3.25043
266 1 -9.39188 10.046 45.7634 -3.48024
267 1 -7.79228 12.1086 45.8604 -3.29571
268 1 -8.83629 9.08764 -2.70398 -3.46179
269 1 -9.42447 11.7775 -2.97475 -3.17541
270 1 -6.99596 9.28387 46.3566 -3.47686
271 1 -5.20329 11.08 46.4226 -3.50417
272 1 -4.57302 10.2936 -2.09314 -3.52025
273 1 -7.02332 10.9549 -2.60414 -3.50642
274 1 -2.73512 10.5595 46.9294 -3.5027
275 1 -0.974311 12.2174 47.2316 -3.51063
276 1 -2.03484 9.74964 -1.52201 -3.53064
277 1 -2.82062 12.1601 -1.70642 -3.48077
278 1 -0.234774 9.76745 -3.27794 -3.49907
279 1 1.53861 11.5757 -3.05217 -3.44157
280 1 1.65034 9.58622 -1.35527 -3.48995
281 1 -0.195264 11.5004 -1.28363 -3.50822
282 1 3.2976 9.99614 -3.335 -3.47621
283 1 5.27844 11.7684 -3.25471 -3.52781
284 1 5.25419 9.81612 -1.44308 -3.48737
285 1 3.28852 11.2921 -1.32814 -3.45486
286 1 6.7815 9.78685 -3.2712 -3.45077
287 1 8.50884 11.4858 -3.31221 -3.45034
288 1 8.53673 9.60222 -1.39574 -3.50901
289 1 7.10311 11.5949 -1.3213 -3.45025
290 1 10.247 9.77979 -3.27558 -3.50531
291 1 12.1398 11.5086 -3.1966 -2.83628
292 1 12.2298 9.62817 -1.31059 -3.26101
293 1 10.3441 11.4397 -1.3695 -3.36331
294 1 13.8036 9.50194 -3.13358 -2.72233
295 1 -10.079 12.3271 45.3504 -2.70757
296 1 -7.37176 13.3544 -2.71352 -2.99112
297 1 -5.79758 13.6049 46.1334 -3.21473
298 1 -3.91334 15.1375 46.0986 -2.86123
299 1 -5.15994 12.708 -2.29567 -3.41453
300 1 -5.67293 15.1566 -2.69287 -2.67259
301 1 -3.51392 12.8596 46.6112 -3.45293
302 1 -1.49183 14.6112 46.8103 -3.23054
303 1 -0.830516 13.8657 -1.62568 -3.38379
304 1 -3.18417 14.5801 -2.29156 -3.13559
305 1 0.900436 13.9216 47.3954 -3.43014
306 1 2.60913 15.6747 -3.53242 -3.11518
307 1 1.60559 13.1347 -1.13953 -3.48839
308 1 1.03825 15.6356 -1.51889 -2.98559
309 1 3.26946 13.298 -3.04931 -3.50645
310 1 5.0014 15.1161 -2.93623 -3.1234
311 1 5.09774 13.208 -1.31648 -3.45703
312 1 3.35016 14.9947 -1.04746 -3.12096
313 1 6.99203 13.6126 -3.17229 -3.32824
314 1 8.68769 13.3549 -1.24088 -3.05897
315 1 6.76519 14.8879 -1.0465 -2.754
316 1 10.3991 13.0519 -3.25132 -2.74296
317 1 0.248471 16.3243 46.8224 -2.70307
318 1 -5.81805 -15.0687 0.560412 -2.86343
319 1 -7.5977 -14.8669 2.52411 -2.6294
320 1 -1.77744 -14.0456 1.41633 -2.99771
321 1 -3.37848 -14.3241 3.48612 -2.84777
322 1 2.50752 -14.7562 -0.490796 -2.90059
323 1 4.39326 -15.1544 0.70812 -2.4974
324 1 0.732392 -14.754 1.65294 -2.68961
325 1 4.81611 -13.8077 2.77443 -2.89799
326 1 2.95029 -13.8665 4.31473 -2.87234
327 1 7.15175 -12.9272 5.00093 -2.71161
328 1 -12.9676 -11.2439 0.923857 -2.86607
329 1 -11.2558 -13.0321 0.932694 -2.68219
330 1 -9.32406 -11.5442 0.860437 -3.4484
331 1 -9.64152 -13.5651 2.7439 -3.02678
332 1 -11.2244 -11.5616 2.87369 -3.30142
333 1 -7.64806 -13.34 0.623217 -3.29598
334 1 -5.75603 -11.9015 0.933585 -3.44687
335 1 -5.68789 -13.5758 2.7343 -3.24061
336 1 -7.65822 -11.969 2.74762 -3.5231
337 1 -4.00939 -13.44 0.86267 -3.25037
338 1 -2.25452 -11.6788 0.98317 -3.49371
339 1 -1.65707 -12.5474 3.34387 -3.33839
340 1 -4.05256 -11.88 2.92602 -3.49288
341 1 0.180771 -12.4324 1.44374 -3.45068
342 1 2.03317 -12.3426 -0.599285 -3.40414
343 1 2.47974 -13.1416 1.93084 -3.37657
344 1 0.200028 -10.8358 3.33841 -3.48059
345 1 4.14626 -12.9689 -0.12834 -3.23057
346 1 6.13257 -11.2032 -0.110901 -3.37247
347 1 4.91514 -12.2411 4.55297 -3.25228
348 1 4.54676 -11.4871 1.95402 -3.49291
349 1 6.83844 -12.0508 2.44535 -3.18582
350 1 8.59317 -10.4121 2.5164 -3.327
351 1 9.13157 -11.2656 4.97152 -3.08419
352 1 6.7186 -10.4497 4.49142 -3.48782
353 1 11.0014 -10.8664 3.00524 -2.66107
354 1 12.7131 -9.18053 3.18924 -2.83482
355 1 11.0196 -9.50132 5.21567 -3.23132
356 1 -14.7005 -9.4964 1.21895 -2.72482
357 1 -12.6596 -8.01534 1.17314 -3.43528
358 1 -12.8286 -9.69426 2.92452 -3.32159
359 1 -14.6559 -8.01375 3.20157 -3.10135
360 1 -11.0687 -9.72033 1.06573 -3.46307
361 1 -9.07091 -8.08778 1.16026 -3.52264
362 1 -9.1417 -9.96226 2.9492 -3.51958
363 1 -10.8702 -8.08566 3.01276 -3.47908
364 1 -7.43042 -9.96877 0.853193 -3.50703
365 1 -5.66633 -8.12854 1.05287 -3.50148
366 1 -5.76481 -10.0787 2.89002 -3.5013
367 1 -7.45987 -8.13949 3.01947 -3.49424
368 1 -4.01305 -9.94129 1.00305 -3.52541
369 1 -2.183 -9.718 -0.807633 -3.4986
370 1 -2.20198 -10.1022 2.97939 -3.51514
371 1 -3.98296 -8.47012 3.13412 -3.46791
372 1 -0.464884 -11.5024 -0.98851 -3.51987
373 1 1.38671 -9.79487 -1.04715 -3.49924
374 1 2.10478 -10.7247 1.39385 -3.52945
375 1 -0.284332 -9.93724 0.962557 -3.50564
376 1 3.83931 -10.4872 -0.456821 -3.48152
377 1 5.57738 -8.72137 -0.330855 -3.50278
378 1 6.13912 -9.61327 2.09324 -3.49453
379 1 3.88693 -8.8802 1.55581 -3.496
380 1 7.94021 -9.41522 0.171609 -3.51135
381 1 9.73929 -7.61995 0.306415 -3.52124
382 1 8.58828 -8.83002 4.56735 -3.51115
383 1 7.90181 -7.87438 2.25464 -3.51388
384 1 10.2434 -8.57901 2.66632 -3.45084
385 1 11.9964 -6.79182 2.73111 -3.49035
386 1 12.8142 -7.55499 5.08808 -3.21309
387 1 10.4415 -6.9097 4.7271 -3.49648
388 1 14.452 -7.38441 3.29252 -2.7015
389 1 14.5646 -5.86281 5.26853 -2.98714
390 1 -16.4103 -4.58649 1.45649 -2.97359
391 1 -16.3485 -6.21903 3.41045 -2.70205
392 1 -14.612 -6.40168 1.30842 -3.39852
393 1 -12.6574 -4.56866 1.35694 -3.516
394 1 -12.7663 -6.44744 3.15367 -3.516
395 1 -14.6209 -4.62725 3.22765 -3.4498
396 1 -10.8693 -6.29939 1.36881 -3.48617
397 1 -9.15127 -4.51261 1.43239 -3.46242
398 1 -9.17608 -6.39538 3.17271 -3.47346
399 1 -11.0613 -4.67368 3.266 -3.48415
400 1 -7.40577 -6.2303 1.10311 -3.49952
401 1 -5.62523 -6.22197 -0.677119 -3.52495
402 1 -5.52504 -6.5633 3.18506 -3.49725
403 1 -7.26233 -4.72038 3.20359 -3.5236
404 1 -3.96125 -8.12405 -0.782022 -3.45751
405 1 -2.13184 -6.36754 -0.648525 -3.53069
406 1 -2.12137 -8.09228 1.19566 -3.46199
407 1 -3.85227 -6.51597 1.32439 -3.4711
408 1 -0.262502 -8.05734 -0.731062 -3.47662
409 1 1.41058 -6.16903 -0.698599 -3.5178
410 1 1.44777 -8.21592 0.95333 -3.44198
411 1 -0.303443 -6.52666 1.30485 -3.49606
412 1 3.21011 -8.04808 -0.836697 -3.48385
413 1 4.82208 -6.378 -0.592182 -3.45501
414 1 5.60133 -7.15188 1.64857 -3.48175
415 1 3.11608 -6.461 1.26373 -3.50102
416 1 7.40036 -6.95968 -0.209927 -3.51014
417 1 9.0836 -5.1405 0.00658076 -3.50541
418 1 9.67304 -5.9967 2.27331 -3.47136
419 1 7.22398 -5.33032 1.67173 -3.42125
420 1 11.5113 -5.86952 0.436884 -3.51093
421 1 13.192 -4.07621 0.626044 -3.48871
422 1 12.0731 -5.01517 4.84837 -3.48926
423 1 11.2931 -4.28375 2.55864 -3.48264
424 1 13.8948 -5.00325 3.01978 -3.37171
425 1 15.5476 -3.22899 3.26879 -2.99829
426 1 16.1451 -3.73892 5.47454 -2.66777
427 1 13.7414 -3.28745 5.0097 -3.4214
428 1 -16.383 -1.19822 1.54357 -3.00139
429 1 -16.3057 -2.81626 3.5223 -3.0388
430 1 -14.5486 -2.80568 1.48555 -3.48653
431 1 -12.8208 -1.02259 1.55523 -3.43165
432 1 -12.773 -2.869 3.43003 -3.5252
433 1 -14.4879 -1.11106 3.48923 -3.4834
434 1 -11.0668 -2.68142 1.45596 -3.48698
435 1 -9.12605 -2.4879 -0.468731 -3.48294
436 1 -9.17297 -3.11635 3.29863 -3.45506
437 1 -10.8799 -1.07903 3.47272 -3.48263
438 1 -7.42617 -4.37128 -0.455614 -3.51092
439 1 -5.58125 -2.77782 -0.51607 -3.52736
440 1 -5.51405 -4.48395 1.35699 -3.49477
441 1 -7.35996 -2.83449 1.50529 -3.46078
442 1 -3.77978 -4.5451 -0.633679 -3.50571
443 1 -2.18351 -2.71792 -0.391869 -3.49733
444 1 -1.98126 -4.77007 1.38744 -3.51667
445 1 -3.77519 -2.91883 1.42361 -3.45711
446 1 -0.369968 -4.50003 -0.544774 -3.50108
447 1 1.39838 -2.904 -0.392987 -3.49085
448 1 1.38655 -4.6456 1.46147 -3.52851
449 1 -0.368002 -2.91291 1.4645 -3.50691
450 1 3.18765 -4.52893 -0.53402 -3.49598
451 1 5.00685 -2.5806 -0.537977 -3.48305
452 1 4.83163 -4.70633 1.32719 -3.48125
453 1 3.13221 -2.88477 1.57776 -3.48317
454 1 6.59872 -4.62265 -0.513419 -3.49092
455 1 8.26376 -2.60814 -0.331042 -3.55858
456 1 8.97037 -3.62633 2.03262 -3.49977
457 1 6.60903 -2.84646 1.59895 -3.51505
458 1 10.7981 -3.31945 0.220728 -3.49971
459 1 12.6518 -1.59314 0.253495 -3.48648
460 1 13.1324 -2.50679 2.71124 -3.517
461 1 10.8142 -1.85483 2.295 -3.49146
462 1 15.0128 -2.36423 0.923709 -3.34816
463 1 16.7245 -0.337142 1.07616 -2.84298
464 1 15.7542 -1.36378 5.1572 -3.09036
465 1 15.094 -0.665214 2.8989 -3.30115
466 1 -16.7483 1.28259 1.22409 -2.73119
467 1 -15.155 3.02575 1.458 -3.28833
468 1 -16.4897 0.499692 3.62095 -3.06905
469 1 -14.5341 0.647144 1.76508 -3.41417
470 1 -12.8484 0.749209 -0.087738 -3.46502
471 1 -12.6781 0.560827 3.74257 -3.49207
472 1 -14.6004 2.22363 3.71376 -3.42569
473 1 -11.0897 -0.824688 -0.285849 -3.43662
474 1 -9.30737 0.704155 -0.216694 -3.4955
475 1 -9.25291 -1.02844 1.62592 -3.52145
476 1 -11.0641 0.648717 1.70984 -3.45323
477 1 -7.32488 -1.04009 -0.223051 -3.47587
478 1 -5.61223 0.846356 -0.40134 -3.46313
479 1 -5.56055 -1.25377 1.57018 -3.47663
480 1 -7.25349 0.638624 1.63217 -3.51824
481 1 -3.91538 -0.827142 -0.36513 -3.50557
482 1 -2.07233 0.851924 -0.256291 -3.48001
483 1 -2.03142 -1.04387 1.44546 -3.48604
484 1 -3.8725 0.702159 1.70457 -3.5201
485 1 -0.325357 -1.01277 -0.263554 -3.51329
486 1 1.54605 0.750217 0.0503921 -3.50629
487 1 1.39912 -1.21084 1.66578 -3.50411
488 1 -0.346229 0.717119 1.81362 -3.52134
489 1 3.11029 -1.05143 -0.344934 -3.47239
490 1 4.79637 0.868806 -0.133193 -3.51949
491 1 4.86734 -1.12924 1.63428 -3.49721
492 1 3.18427 0.757131 1.89294 -3.48821
493 1 6.6137 -0.726992 -0.25867 -3.47706
494 1 8.54862 0.743641 -0.0699964 -3.49273
495 1 8.43195 -1.04522 1.69269 -3.50729
496 1 6.57373 0.621867 1.86585 -3.49118
497 1 10.2709 -1.02217 -0.190178 -3.47067
498 1 11.9607 0.776165 -0.112279 -3.53019
499 1 12.874 -0.0588461 2.32134 -3.4825
500 1 10.2511 0.57277 1.80652 -3.47333
501 1 14.4828 0.12426 0.457919 -3.47373
502 1 16.3525 2.05474 0.622476 -3.08009
503 1 16.7543 1.16507 3.04969 -2.85853
504 1 14.5472 1.73921 2.41716 -3.47815
505 1 17.1614 2.65421 46.9908 -2.57056
506 1 -15.8391 3.77877 -0.980461 -2.86573
507 1 -15.1417 4.71071 3.25792 -3.09582
508 1 -13.5095 3.14171 -0.59807 -3.51377
509 1 -11.5694 4.93492 -0.4595 -3.43676
510 1 -12.7978 2.40303 2.0546 -3.46719
511 1 -13.3555 4.84283 1.37318 -3.48222
512 1 -11.0056 2.53292 -0.218802 -3.52763
513 1 -9.2551 4.30895 0.0964096 -3.49214
514 1 -9.23688 2.17496 1.83117 -3.49538
515 1 -10.977 4.12966 1.89069 -3.53441
516 1 -7.49384 2.5118 -0.0068759 -3.50011
517 1 -5.6336 4.20291 -0.0839615 -3.48926
518 1 -5.5461 2.4489 1.9439 -3.48234
519 1 -7.40459 4.20172 2.00921 -3.49364
520 1 -3.78168 2.54718 -0.130461 -3.48767
521 1 -2.16101 4.37039 0.0350308 -3.47614
522 1 -2.08088 2.52534 1.88247 -3.51718
523 1 -3.93046 4.26606 2.17505 -3.46757
524 1 -0.316327 2.56909 -0.112742 -3.5063
525 1 1.45389 4.23363 0.316052 -3.36796
526 1 1.42719 2.38013 2.17512 -3.42509
527 1 -0.232906 4.09667 2.09059 -3.46498
528 1 3.12381 2.66319 -0.00928387 -3.45059
529 1 4.99826 4.30525 0.174557 -3.5059
530 1 4.8799 2.4666 1.92476 -3.48698
531 1 3.114 4.04662 2.08128 -3.45565
532 1 6.68292 2.50992 -0.0484503 -3.51798
533 1 8.50181 4.31646 0.0519876 -3.49115
534 1 8.59704 2.363 1.83489 -3.49652
535 1 6.77968 4.1293 2.03205 -3.51145
536 1 10.3514 2.72028 -0.0214948 -3.47647
537 1 12.1713 4.24985 0.178643 -3.485
538 1 12.1492 2.43205 2.01634 -3.53205
539 1 10.2919 4.17663 2.16454 -3.52168
540 1 14.0026 2.51411 0.0803134 -3.48608
541 1 15.6378 4.40927 0.417228 -3.06415
542 1 16.3463 3.70742 2.71215 -3.06058
543 1 13.8567 4.216 2.07183 -3.46098
544 1 -15.7558 5.53415 0.905719 -2.67228
545 1 -14.2099 5.6737 -1.14153 -3.19634
546 1 -12.3022 7.21109 -0.851979 -3.35675
547 1 -11.589 6.6374 1.52266 -3.50349
548 1 -13.9718 7.27532 1.1116 -3.00591
549 1 -9.96912 6.6702 -0.371961 -3.4631
550 1 -8.04109 8.50171 -0.0332016 -3.44037
551 1 -9.24137 5.99581 2.05107 -3.5417
552 1 -9.9193 8.43538 1.64427 -3.51679
553 1 -7.52904 6.18314 0.0855923 -3.48773
554 1 -5.65099 7.75414 0.443071 -3.48845
555 1 -5.69643 5.93464 2.16188 -3.48374
556 1 -7.4208 7.82718 2.27821 -3.50305
557 1 -3.81139 5.99499 0.247021 -3.47185
558 1 -1.98582 7.70527 0.270172 -3.50631
559 1 -1.96422 5.87404 2.19547 -3.52428
560 1 -3.71182 7.61944 2.23268 -3.53029
561 1 -0.157784 5.96092 0.149794 -3.49444
562 1 1.54738 7.70199 0.552408 -3.44908
563 1 1.46769 5.88562 2.3462 -3.50377
564 1 -0.219665 7.79347 2.27738 -3.49647
565 1 3.12769 5.95243 0.236792 -3.48902
566 1 4.97976 7.81095 0.3152 -3.49988
567 1 4.91676 5.79856 2.2272 -3.53541
568 1 3.24892 7.70132 2.235 -3.47035
569 1 6.80821 6.05033 0.284875 -3.48085
570 1 8.58821 7.70397 0.307976 -3.48489
571 1 8.42971 5.91895 2.10386 -3.46348
572 1 6.79652 7.74911 2.3008 -3.53925
573 1 10.2906 5.96692 0.201408 -3.50583
574 1 12.0465 7.68586 0.355787 -3.44631
575 1 12.0473 5.97077 2.27053 -3.50113
576 1 10.0974 7.6522 2.21368 -3.48023
577 1 13.8986 6.03764 0.570735 -3.32052
578 1 15.5814 5.98136 2.49408 -2.85074
579 1 13.7601 7.68319 2.47341 -3.04596
580 1 -12.7539 9.61128 -1.25988 -2.72792
581 1 -10.9716 11.4778 -1.21858 -2.83115
582 1 -12.1591 9.23074 0.990991 -3.16458
583 1 -10.41 9.03908 -0.78852 -3.44911
584 1 -8.63451 10.8183 -0.517469 -3.44183
585 1 -8.01186 10.2178 1.95964 -3.48846
586 1 -10.3146 10.9691 1.31618 -3.25706
587 1 -6.18184 10.2615 -0.0646227 -3.52363
588 1 -4.46633 11.946 0.0487389 -3.48075
589 1 -5.50865 9.34476 2.32379 -3.51728
590 1 -6.12293 11.8603 2.01285 -3.45969
591 1 -3.73329 9.50308 0.497838 -3.48583
592 1 -2.06848 11.243 0.403483 -3.47007
593 1 -1.96023 9.39996 2.20316 -3.48966
594 1 -3.78731 11.1218 2.43425 -3.47174
595 1 -0.195522 9.58511 0.434827 -3.54305
596 1 1.54552 11.3552 0.655299 -3.50585
597 1 1.60382 9.54526 2.43582 -3.48856
598 1 -0.146285 11.256 2.53172 -3.48981
599 1 3.30024 9.55176 0.51522 -3.51476
600 1 5.17967 11.3871 0.516412 -3.49026
601 1 4.97154 9.45731 2.44006 -3.49731
602 1 3.27569 11.2037 2.51118 -3.41792
603 1 6.85949 9.5193 0.427195 -3.48308
604 1 8.50437 11.2881 0.571505 -3.46536
605 1 8.65648 9.51314 2.43284 -3.44284
606 1 6.7138 11.1606 2.50258 -3.53529
607 1 10.5056 9.53065 0.43138 -3.46415
608 1 12.0659 11.2952 0.472838 -2.83411
609 1 12.263 9.37165 2.29677 -3.25782
610 1 10.3476 11.1574 2.44759 -3.33652
611 1 13.8442 9.29993 0.415437 -2.75404
612 1 -9.24487 13.0716 -0.956611 -2.71019
613 1 -8.40602 12.6692 1.4113 -3.09842
614 1 -6.91892 12.6073 -0.47626 -3.3238
615 1 -4.98225 14.3495 -0.511681 -3.04561
616 1 -4.38329 13.5233 1.98964 -3.31943
617 1 -6.6917 14.2601 1.56601 -2.74026
618 1 -2.66406 13.7257 0.13234 -3.35605
619 1 -0.816387 15.4528 0.246083 -2.91533
620 1 -1.99493 12.8452 2.43949 -3.47209
621 1 -2.73755 15.2365 2.0371 -2.88652
622 1 -0.242492 13.0181 0.692978 -3.45334
623 1 1.4654 14.6223 0.918636 -3.24243
624 1 1.66025 12.8948 2.67393 -3.4594
625 1 -0.425173 14.6618 2.5122 -3.22808
626 1 3.38817 12.9198 0.688537 -3.47148
627 1 4.93978 14.8414 0.753048 -3.00262
628 1 4.96029 12.9219 2.71239 -3.40643
629 1 3.25843 14.8078 2.63434 -3.14631
630 1 6.83799 13.108 0.731938 -3.33448
631 1 8.62392 13.0821 2.49897 -3.08642
632 1 6.64727 14.5295 2.62192 -2.7372
633 1 10.313 13.2174 0.767319 -2.62324
634 1 1.21997 16.2441 2.67547 -2.56086
635 1 -5.36527 -14.4938 5.168 -2.83082
636 1 -7.29262 -14.4341 7.06292 -2.69118
637 1 -1.18262 -13.4479 5.80397 -3.14901
638 1 -2.83776 -13.7075 7.78361 -3.06785
639 1 0.523772 -13.4662 3.90804 -3.22681
640 1 1.27893 -14.1218 6.39697 -2.79277
641 1 -0.57067 -14.0849 8.4252 -2.94553
642 1 5.56519 -13.0989 6.90365 -2.95358
643 1 3.78322 -13.1231 8.50136 -3.11086
644 1 6.31635 -13.7488 9.0387 -2.66945
645 1 -12.8649 -11.3919 4.92942 -2.88133
646 1 -11.1058 -13.1885 4.65806 -2.78538
647 1 -9.08753 -11.8669 4.72465 -3.36329
648 1 -9.43029 -13.6384 6.45614 -2.97455
649 1 -11.1295 -11.9078 6.7001 -3.27688
650 1 -7.78179 -13.7244 4.62167 -3.12199
651 1 -5.94903 -12.0595 4.8533 -3.51204
652 1 -5.27637 -12.9338 7.34615 -3.32628
653 1 -7.52889 -12.0661 6.93116 -3.43059
654 1 -3.5535 -12.7171 5.43434 -3.35209
655 1 -1.67447 -11.11 5.29447 -3.48233
656 1 -1.01944 -11.7813 7.81914 -3.46283
657 1 -3.40068 -11.2025 7.3976 -3.47821
658 1 0.747611 -11.6816 5.71654 -3.46124
659 1 2.34893 -11.5907 3.95749 -3.39998
660 1 1.31973 -12.4585 8.0409 -3.31777
661 1 0.761723 -9.9481 7.85173 -3.49322
662 1 3.05072 -12.5077 6.2624 -3.28379
663 1 4.87963 -10.6336 6.4695 -3.5291
664 1 5.6792 -11.3233 8.89448 -3.48383
665 1 3.1944 -10.6884 8.36322 -3.50718
666 1 7.43889 -11.3139 7.01953 -3.3681
667 1 9.04206 -9.41485 7.072 -3.44836
668 1 8.26291 -12.1356 9.30823 -3.06461
669 1 7.48192 -9.66837 9.10987 -3.48017
670 1 9.7438 -11.6816 7.41508 -2.71467
671 1 11.5609 -10.0203 7.56493 -2.85645
672 1 9.82617 -10.3464 9.3263 -3.23197
673 1 -14.8056 -9.81432 4.97802 -2.62441
674 1 -12.8473 -8.33649 5.12497 -3.49298
675 1 -12.7299 -10.1183 6.88136 -3.25081
676 1 -14.6874 -8.33907 6.97532 -3.10297
677 1 -10.7966 -10.096 4.94947 -3.4505
678 1 -9.17236 -8.40266 5.0981 -3.45809
679 1 -9.27271 -10.2515 6.8427 -3.49933
680 1 -10.9716 -8.49868 6.9394 -3.49627
681 1 -7.38862 -10.1211 4.74966 -3.47251
682 1 -5.58722 -8.35659 5.02539 -3.48472
683 1 -5.73992 -10.3483 6.76686 -3.51133
684 1 -7.47051 -8.59128 6.9292 -3.49005
685 1 -4.06363 -10.2613 4.83004 -3.50597
686 1 -2.11208 -8.36817 4.96012 -3.49431
687 1 -1.60131 -9.43708 7.32888 -3.48461
688 1 -3.89962 -8.60327 6.89011 -3.47555
689 1 0.179335 -9.2227 5.32128 -3.48867
690 1 2.10488 -8.9883 3.56709 -3.48895
691 1 2.43077 -9.95532 5.8996 -3.50055
692 1 0.225876 -7.57654 7.62683 -3.51393
693 1 4.23051 -10.0257 3.99154 -3.45781
694 1 6.0873 -7.99967 4.04496 -3.48404
695 1 5.05418 -8.90106 8.39101 -3.4971
696 1 4.22304 -8.23143 6.11321 -3.47653
697 1 6.7027 -8.78088 6.44978 -3.47592
698 1 8.59366 -7.02306 6.57526 -3.49345
699 1 9.30241 -7.84273 8.99498 -3.51648
700 1 6.94589 -7.17987 8.39545 -3.50842
701 1 11.098 -7.55687 7.03387 -3.46956
702 1 12.8524 -5.79541 7.22962 -3.34897
703 1 11.7934 -8.35346 9.41782 -3.29983
704 1 11.0281 -6.06689 9.16572 -3.50099
705 1 13.5236 -8.05562 7.52931 -2.67904
706 1 13.4736 -6.47901 9.75745 -3.10051
707 1 -16.2858 -4.54708 5.2245 -3.00343
708 1 -16.2442 -6.17002 7.13642 -2.75152
709 1 -14.5909 -6.52381 5.18078 -3.36852
710 1 -12.8024 -4.80908 5.05763 -3.52482
711 1 -12.86 -6.69685 6.98299 -3.49796
712 1 -14.4784 -4.6172 7.10478 -3.3839
713 1 -10.9134 -6.59965 5.17169 -3.52046
714 1 -9.16929 -4.82529 5.06244 -3.48273
715 1 -9.2316 -6.72851 7.06998 -3.51505
716 1 -11.0927 -4.93125 6.98681 -3.50278
717 1 -7.47494 -6.60548 5.08696 -3.50998
718 1 -5.60088 -4.92037 5.20255 -3.51804
719 1 -5.66796 -6.87093 6.98206 -3.50223
720 1 -7.44983 -4.93548 7.21366 -3.48498
721 1 -3.81943 -6.63356 5.0855 -3.48521
722 1 -2.10518 -6.66215 3.13339 -3.49286
723 1 -2.24293 -6.92919 7.07498 -3.45549
724 1 -3.99419 -5.13183 7.17859 -3.49975
725 1 -0.382947 -8.37514 3.08586 -3.48192
726 1 1.38342 -6.59356 3.2772 -3.49389
727 1 1.93118 -7.44912 5.62195 -3.49477
728 1 -0.272205 -6.74266 5.03411 -3.43525
729 1 3.79722 -7.28251 3.8482 -3.44829
730 1 5.79581 -5.45782 3.6976 -3.47021
731 1 6.10374 -6.49629 6.04476 -3.49943
732 1 3.6621 -5.60564 5.65184 -3.46145
733 1 7.9782 -6.28648 4.19155 -3.45594
734 1 9.63309 -4.54451 4.39072 -3.47831
735 1 8.68073 -5.38518 8.72202 -3.49726
736 1 7.89743 -4.63493 6.47373 -3.50685
737 1 10.4672 -5.08511 6.82717 -3.51389
738 1 12.255 -3.38153 7.04648 -3.47459
739 1 12.6907 -4.17488 9.36791 -3.46305
740 1 10.4128 -3.52559 8.87764 -3.49441