ITEM: TIMESTEP
70000
ITEM: NUMBER OF ATOMS
3804
ITEM: BOX BOUNDS ss ss pp
-1.7872141128505433e+01 1.7531148913267170e+01
-1.7607874751458308e+01 1.7652483195633597e+01
-1.5183000000000000e+00 4.4898300000000006e+01
ITEM: ATOMS id type x y z c_peratom
1 1 -5.37964 -15.8451 44.7211 -2.97484
2 1 -7.2023 -15.8147 0.139495 -2.69581
3 1 -1.82623 -16.0274 44.8145 -3.0825
4 1 -3.49504 -16.098 0.211162 -2.97785
5 1 -0.0812965 -17.5669 -1.42786 -2.38912
6 1 1.67764 -16.0677 -1.59067 -3.1068
7 1 0.03928 -15.901 0.201575 -3.14478
8 1 5.35868 -15.9209 -1.52501 -2.94649
9 1 3.56756 -16.053 0.281332 -3.04892
10 1 6.78714 -16.0857 0.359445 -2.56193
11 1 -12.1606 -12.3303 -1.37194 -2.85276
12 1 -10.3051 -14.1416 44.8276 -2.71877
13 1 -8.87811 -12.3205 -1.41703 -3.37137
14 1 -9.01729 -14.2201 0.399095 -3.02708
15 1 -10.5251 -12.3161 0.451825 -3.27372
16 1 -7.2149 -14.0483 44.7373 -3.37949
17 1 -5.28262 -12.46 44.7713 -3.49203
18 1 -5.2096 -14.1978 0.265058 -3.44635
19 1 -7.0837 -12.5717 0.450713 -3.51901
20 1 -3.56597 -14.2404 -1.51657 -3.43496
21 1 -1.88041 -12.3978 45.0684 -3.50368
22 1 -1.74291 -14.1294 0.430168 -3.49529
23 1 -3.68255 -12.313 0.552597 -3.44056
24 1 -0.103245 -14.279 44.7769 -3.53369
25 1 1.75952 -12.4831 -1.62774 -3.52816
26 1 1.75094 -14.2298 0.305367 -3.46484
27 1 0.0399531 -12.449 0.233542 -3.48721
28 1 3.47852 -14.307 -1.58502 -3.47081
29 1 5.23947 -12.4803 -1.55481 -3.52437
30 1 5.35388 -14.2704 0.491545 -3.40691
31 1 3.51738 -12.4412 0.360246 -3.52118
32 1 6.96412 -14.1876 44.9012 -3.3418
33 1 8.79099 -12.4393 -1.66157 -3.39529
34 1 8.86464 -13.9402 0.499103 -3.08914
35 1 7.10279 -12.3963 0.481922 -3.43122
36 1 10.4495 -14.1266 -1.41732 -2.70462
37 1 12.2532 -12.1215 44.9622 -2.87281
38 1 10.7908 -12.3993 0.406187 -3.26636
39 1 -13.7963 -10.6388 45.2231 -2.7101
40 1 -12.1247 -8.74166 -1.53386 -3.45413
41 1 -12.0863 -10.5628 0.475431 -3.20302
42 1 -13.8907 -8.70301 0.428463 -3.12223
43 1 -10.488 -10.6378 44.8689 -3.44364
44 1 -8.90313 -8.71812 -1.46112 -3.50207
45 1 -8.84581 -10.4551 0.338787 -3.52945
46 1 -10.6654 -8.77354 0.449673 -3.44996
47 1 -7.04829 -10.5733 44.9168 -3.53553
48 1 -5.30724 -8.81529 -1.54807 -3.50649
49 1 -5.41474 -10.6943 0.406788 -3.47584
50 1 -7.10959 -8.58069 0.395883 -3.47509
51 1 -3.60871 -10.6494 -1.46971 -3.51601
52 1 -1.75959 -8.95473 -1.44804 -3.48827
53 1 -1.71847 -10.5922 0.44972 -3.49584
54 1 -3.65336 -8.98689 0.492281 -3.52484
55 1 -0.0370591 -10.6142 44.772 -3.48858
56 1 1.77079 -8.86533 -1.47312 -3.4822
57 1 1.74555 -10.6675 0.399254 -3.53212
58 1 -0.0905416 -8.91326 0.380908 -3.45571
59 1 3.44916 -10.5388 -1.54489 -3.49167
60 1 5.31904 -8.97612 44.8939 -3.45132
61 1 5.27536 -10.6261 0.328581 -3.47646
62 1 3.63316 -8.90569 0.509063 -3.48908
63 1 7.04609 -10.7414 -1.42387 -3.5124
64 1 8.93587 -8.77553 -1.64784 -3.49594
65 1 8.79271 -10.621 0.362558 -3.52121
66 1 7.07305 -8.94849 0.450985 -3.49246
67 1 10.4674 -10.6667 44.8803 -3.4229
68 1 12.2695 -8.9878 -1.59523 -3.38872
69 1 12.3213 -10.4916 0.493365 -3.33588
70 1 10.5514 -8.73698 0.263038 -3.50545
71 1 14.0612 -10.2972 44.9355 -2.72145
72 1 14.1197 -8.77413 0.481233 -3.03586
73 1 -15.9183 -5.14137 -1.47533 -2.98114
74 1 -15.8612 -6.78254 0.445199 -2.66643
75 1 -13.8955 -6.95744 45.0636 -3.37344
76 1 -12.2827 -4.98752 -1.60414 -3.45913
77 1 -12.3277 -6.96141 0.468721 -3.41446
78 1 -14.1534 -5.13957 0.308777 -3.42517
79 1 -10.6424 -6.9479 -1.55596 -3.47797
80 1 -8.80637 -5.20355 -1.44797 -3.51225
81 1 -8.95026 -6.91639 0.468052 -3.52191
82 1 -10.7178 -5.14443 0.358104 -3.50417
83 1 -7.15984 -7.08248 -1.55772 -3.48263
84 1 -5.35612 -5.32576 44.8799 -3.51319
85 1 -5.24835 -7.07319 0.477743 -3.48129
86 1 -7.11567 -5.24783 0.374492 -3.52169
87 1 -3.49063 -7.1187 -1.45878 -3.49604
88 1 -1.8679 -5.28677 -1.55542 -3.45075
89 1 -1.76952 -7.17105 0.501447 -3.47898
90 1 -3.47654 -5.43595 0.423861 -3.47243
91 1 -0.0805047 -7.11452 -1.50266 -3.54895
92 1 1.818 -5.41059 -1.4368 -3.52208
93 1 1.73721 -7.23681 0.521727 -3.51801
94 1 -0.0836356 -5.45506 0.407958 -3.47684
95 1 3.56794 -7.28363 44.9432 -3.51482
96 1 5.31403 -5.35074 44.7428 -3.48117
97 1 5.3105 -7.19659 0.557249 -3.49589
98 1 3.53631 -5.40272 0.409647 -3.53696
99 1 6.96651 -7.12799 -1.44177 -3.49117
100 1 8.74493 -5.40733 -1.53944 -3.51484
101 1 8.76584 -7.11602 0.414226 -3.48321
102 1 7.08285 -5.39496 0.309252 -3.46422
103 1 10.6167 -7.05408 -1.51559 -3.46579
104 1 12.5243 -5.42319 44.9734 -3.46329
105 1 12.5069 -7.10102 0.325827 -3.42495
106 1 10.6083 -5.43536 0.498698 -3.52977
107 1 14.322 -7.40159 44.8113 -3.36019
108 1 15.9365 -5.11075 -1.48535 -2.96325
109 1 15.9645 -6.7967 0.234186 -2.70416
110 1 14.1139 -5.35066 0.378668 -3.34929
111 1 -16.1045 -1.78145 -1.63488 -3.08063
112 1 -15.981 -3.304 0.416549 -3.0166
113 1 -14.1789 -3.37895 -1.42617 -3.46381
114 1 -12.3072 -1.68038 44.9362 -3.51543
115 1 -12.332 -3.31765 0.411661 -3.49324
116 1 -14.2702 -1.54843 0.436503 -3.46723
117 1 -10.5324 -3.42227 44.821 -3.45274
118 1 -8.79853 -1.72176 -1.51047 -3.50474
119 1 -8.81714 -3.43837 0.47168 -3.52035
120 1 -10.6357 -1.64706 0.577415 -3.42993
121 1 -6.98705 -3.49748 44.8915 -3.52497
122 1 -5.17992 -1.59723 -1.37607 -3.50057
123 1 -5.24499 -3.60052 0.410715 -3.52285
124 1 -7.02785 -1.84886 0.476345 -3.50537
125 1 -3.60699 -3.4071 -1.43827 -3.46526
126 1 -1.77937 -1.83841 44.9335 -3.48889
127 1 -1.72838 -3.70583 0.291858 -3.48665
128 1 -3.48103 -1.73628 0.430106 -3.51606
129 1 0.037719 -3.67232 -1.46795 -3.50707
130 1 1.7403 -1.91802 44.8683 -3.49771
131 1 1.68548 -3.63341 0.312128 -3.50708
132 1 -0.0959636 -1.7473 0.36268 -3.53811
133 1 3.47156 -3.61412 -1.5169 -3.46019
134 1 5.24185 -2.03348 -1.43782 -3.48683
135 1 5.34489 -3.74245 0.478019 -3.47826
136 1 3.49526 -1.96261 0.437 -3.49587
137 1 7.07563 -3.62529 44.9186 -3.44234
138 1 8.79051 -2.04591 44.8789 -3.44016
139 1 8.89436 -3.65085 0.467261 -3.53908
140 1 7.01495 -1.92416 0.454554 -3.51667
141 1 10.6969 -3.61455 -1.52622 -3.49976
142 1 12.2252 -1.74131 44.8246 -3.4581
143 1 12.4913 -3.66357 0.505025 -3.45906
144 1 10.6533 -1.72563 0.536696 -3.49494
145 1 14.0331 -3.48107 44.8775 -3.44974
146 1 15.8856 -1.90602 44.7736 -3.11304
147 1 15.9365 -3.55679 0.423192 -3.0287
148 1 14.1867 -1.61694 0.360857 -3.44876
149 1 -17.4124 0.177119 -1.68606 -2.33817
150 1 -15.9934 2.07783 45.0065 -3.08048
151 1 -16.0962 0.0735406 0.493988 -3.1936
152 1 -14.2746 0.0638828 44.9523 -3.53187
153 1 -12.3473 1.6957 44.8589 -3.48284
154 1 -12.2571 0.0176165 0.493644 -3.46856
155 1 -14.1733 1.74313 0.457812 -3.50618
156 1 -10.6388 0.0197586 44.8075 -3.47574
157 1 -8.83713 1.79339 -1.64889 -3.48416
158 1 -8.83382 -0.0411293 0.455394 -3.51055
159 1 -10.5621 1.7533 0.58854 -3.47306
160 1 -7.01812 -0.0459289 44.9187 -3.49591
161 1 -5.24819 1.67172 -1.41278 -3.482
162 1 -5.23827 0.0652093 0.507446 -3.50447
163 1 -7.05618 1.79652 0.338903 -3.49295
164 1 -3.37285 0.115993 45.0058 -3.50657
165 1 -1.62032 1.77422 44.9789 -3.45978
166 1 -1.81349 0.118446 0.494928 -3.481
167 1 -3.52097 1.84758 0.512151 -3.49728
168 1 -0.0657381 -0.0702727 -1.48263 -3.5025
169 1 1.89875 1.75363 44.8852 -3.49279
170 1 1.88748 -0.169763 0.239812 -3.47701
171 1 0.0713162 1.77087 0.350267 -3.52163
172 1 3.57384 -0.0692348 44.8377 -3.48675
173 1 5.32291 1.60823 44.7154 -3.47043
174 1 5.20373 0.0177781 0.536632 -3.50525
175 1 3.37248 1.75502 0.47747 -3.45166
176 1 6.96785 -0.187623 44.9315 -3.52446
177 1 8.66657 1.61835 44.8793 -3.51124
178 1 8.82698 -0.231124 0.296455 -3.46672
179 1 6.99817 1.67896 0.229656 -3.47369
180 1 10.3863 -0.209143 44.7953 -3.47366
181 1 12.2929 1.64816 45.0234 -3.43908
182 1 12.4795 0.00640307 0.33332 -3.42669
183 1 10.5686 1.54545 0.335571 -3.47298
184 1 14.0772 -0.043807 44.8715 -3.50285
185 1 15.9525 1.86758 44.9111 -3.11634
186 1 15.9844 0.136421 0.260693 -3.16405
187 1 14.2381 1.79335 0.524147 -3.46579
188 1 17.4335 -0.0288004 44.6027 -2.35532
189 1 -15.776 5.32974 -1.52268 -2.9811
190 1 -15.9159 3.73792 0.395085 -3.03362
191 1 -13.9995 3.60335 44.9112 -3.46898
192 1 -12.2042 5.57022 44.867 -3.53636
193 1 -12.2246 3.56121 0.311516 -3.49092
194 1 -14.0618 5.34518 0.342196 -3.3942
195 1 -10.5784 3.44681 -1.53322 -3.45951
196 1 -8.82914 5.31153 44.7959 -3.48038
197 1 -8.91025 3.62842 0.356129 -3.48296
198 1 -10.5203 5.41605 0.518498 -3.4834
199 1 -6.92952 3.41945 -1.40192 -3.46961
200 1 -5.25848 5.29412 44.8292 -3.50016
201 1 -5.25662 3.63279 0.448602 -3.49827
202 1 -7.02536 5.23142 0.414921 -3.45846
203 1 -3.52707 3.53999 -1.54528 -3.53935
204 1 -1.66741 5.21175 44.9365 -3.48575
205 1 -1.72176 3.54648 0.39922 -3.51804
206 1 -3.42571 5.34265 0.495003 -3.485
207 1 0.0304046 3.54269 -1.50023 -3.47254
208 1 1.95466 5.61796 44.9518 -3.48631
209 1 1.81156 3.58531 0.434615 -3.50176
210 1 0.00746534 5.36662 0.478987 -3.52638
211 1 3.51912 3.58466 44.9319 -3.48117
212 1 5.33821 5.41139 44.7866 -3.43156
213 1 5.17694 3.406 0.377936 -3.45332
214 1 3.67555 5.25092 0.455375 -3.50058
215 1 6.95218 3.47841 -1.46566 -3.49745
216 1 8.67926 5.27879 -1.62123 -3.48646
217 1 8.94278 3.34001 0.363277 -3.4887
218 1 6.88975 5.18518 0.388963 -3.52706
219 1 10.4988 3.51456 44.8724 -3.5126
220 1 12.2606 5.41815 -1.52281 -3.5275
221 1 12.2878 3.42716 0.276674 -3.52078
222 1 10.5513 5.27655 0.39124 -3.51791
223 1 13.9938 3.34147 44.8632 -3.4203
224 1 15.701 5.14225 -1.64471 -2.97674
225 1 15.8406 3.81735 0.291215 -3.03717
226 1 13.9689 5.38254 0.422762 -3.41328
227 1 -15.9041 6.74229 0.534421 -2.72967
228 1 -14.3045 7.18478 44.9576 -3.33332
229 1 -12.3872 8.74955 -1.45168 -3.42971
230 1 -12.3421 7.10268 0.502021 -3.49476
231 1 -14.3002 8.81518 0.639146 -3.02491
232 1 -10.3582 7.23507 44.9538 -3.45393
233 1 -8.76356 8.95313 44.9727 -3.44946
234 1 -8.66062 7.09343 0.494683 -3.49898
235 1 -10.5033 8.77171 0.612423 -3.46962
236 1 -7.14544 7.06867 -1.39549 -3.50156
237 1 -5.30343 8.72352 44.9243 -3.51619
238 1 -5.34082 7.00172 0.622919 -3.51397
239 1 -6.98036 8.93213 0.437464 -3.4931
240 1 -3.49288 7.0027 -1.38008 -3.50675
241 1 -1.87654 8.92272 44.9002 -3.49911
242 1 -1.78089 7.0648 0.493648 -3.47791
243 1 -3.65085 8.87512 0.501917 -3.53929
244 1 -0.0148474 7.11249 -1.48754 -3.49227
245 1 1.59458 8.91548 -1.36519 -3.43173
246 1 1.81539 7.07917 0.577654 -3.43743
247 1 -0.00936602 8.74458 0.375619 -3.44335
248 1 3.64424 7.32913 44.9687 -3.42005
249 1 5.44494 8.83586 44.8996 -3.42966
250 1 5.26815 7.15811 0.498876 -3.48814
251 1 3.47477 8.80634 0.384255 -3.43531
252 1 7.00025 7.04106 44.9502 -3.45081
253 1 8.80682 8.81323 -1.47985 -3.51228
254 1 8.64963 6.95398 0.43922 -3.52261
255 1 6.95667 8.8186 0.420602 -3.46219
256 1 10.3586 6.9929 -1.482 -3.46684
257 1 12.1499 8.66413 -1.66571 -3.43646
258 1 12.2304 7.04702 0.451385 -3.48385
259 1 10.5027 8.82234 0.452942 -3.51556
260 1 14.0456 7.15787 -1.38916 -3.34153
261 1 15.8074 6.84519 0.342383 -2.71511
262 1 14.0844 8.81797 0.514059 -3.07604
263 1 -14.178 10.2192 45.1121 -2.73121
264 1 -12.6398 12.1949 44.932 -2.76544
265 1 -12.3201 10.3754 0.392 -3.35584
266 1 -10.6518 10.6291 44.9058 -3.51882
267 1 -8.76619 12.2109 44.788 -3.43169
268 1 -8.89566 10.4988 0.482947 -3.4848
269 1 -10.659 12.2927 0.533192 -3.27838
270 1 -6.98017 10.5852 44.8128 -3.46679
271 1 -5.35003 12.5111 45.0401 -3.50223
272 1 -5.35626 10.6989 0.388242 -3.47293
273 1 -7.14577 12.4606 0.344752 -3.50708
274 1 -3.52689 10.682 45.0474 -3.50019
275 1 -1.88146 12.541 44.9202 -3.51408
276 1 -1.8056 10.5813 0.505752 -3.48793
277 1 -3.4411 12.3676 0.53092 -3.48866
278 1 -0.0983499 10.6814 -1.48329 -3.51177
279 1 1.60932 12.453 44.804 -3.48744
280 1 1.75287 10.6899 0.53681 -3.47893
281 1 -0.09953 12.5529 0.322632 -3.53812
282 1 3.24481 10.6397 44.826 -3.48768
283 1 5.12147 12.374 -1.49857 -3.497
284 1 5.23345 10.5276 0.407167 -3.49175
285 1 3.50039 12.2782 0.325388 -3.4555
286 1 7.01569 10.6969 -1.44361 -3.41182
287 1 8.56417 12.3804 44.8408 -3.38152
288 1 8.71282 10.5125 0.309593 -3.49918
289 1 6.87975 12.2973 0.593735 -3.46767
290 1 10.5889 10.6272 -1.41766 -3.45592
291 1 12.2231 12.2428 -1.54775 -2.80276
292 1 12.2863 10.6106 0.301625 -3.31048
293 1 10.5391 12.3992 0.641425 -3.27204
294 1 13.9515 10.3085 -1.79122 -2.74844
295 1 -10.8238 13.818 45.0406 -2.69049
296 1 -8.96022 14.063 0.277167 -3.06508
297 1 -7.23504 14.0985 -1.61929 -3.34143
298 1 -5.48388 15.946 -1.49125 -2.94312
299 1 -5.27498 14.2084 0.389919 -3.39208
300 1 -7.0684 15.7086 0.331261 -2.75021
301 1 -3.60755 14.3123 44.8212 -3.41264
302 1 -1.91775 15.9799 -1.58697 -3.07941
303 1 -1.94625 14.3962 0.375866 -3.45697
304 1 -3.94087 16.2304 0.162419 -2.87625
305 1 -0.0718273 14.3058 44.8882 -3.49413
306 1 1.81206 15.9741 44.8806 -3.06997
307 1 1.77246 14.1395 0.316059 -3.47873
308 1 0.0065555 15.7906 0.368718 -3.0891
309 1 3.58429 14.1787 -1.47128 -3.47387
310 1 5.46245 16.0504 45.0553 -2.91871
311 1 5.25304 14.0239 0.425248 -3.43417
312 1 3.59763 15.898 0.457253 -3.04233
313 1 6.95554 14.2418 -1.48439 -3.33532
314 1 8.74273 14.067 0.468057 -3.10674
315 1 6.90015 15.7466 0.779541 -2.7406
316 1 10.5254 13.8867 -1.31953 -2.70546
317 1 0.0305156 17.3836 44.908 -2.39613
318 1 -5.34225 -15.9256 2.24514 -2.92284
319 1 -6.67092 -15.8167 4.3398 -2.73449
320 1 -1.88741 -15.9982 2.12309 -3.11086
321 1 -3.75331 -15.8939 4.01232 -3.03074
322 1 0.00716715 -17.4555 1.89961 -2.39075
323 1 1.94939 -16.0504 2.22412 -3.11328
324 1 -0.0399536 -15.9157 3.97149 -3.0868
325 1 4.9987 -15.986 2.45391 -2.94953
326 1 3.66137 -15.8962 4.32264 -2.97729
327 1 6.79557 -15.8971 4.32697 -2.72291
328 1 -12.0592 -12.2726 2.37039 -2.90401
329 1 -10.3556 -14.2571 2.37563 -2.68578
330 1 -8.90062 -12.3216 2.30487 -3.44443
331 1 -8.69111 -14.2306 4.34317 -3.12252
332 1 -10.5612 -12.4513 4.29369 -3.31673
333 1 -7.15398 -14.2981 2.28346 -3.34486
334 1 -5.23877 -12.5087 2.36786 -3.46645
335 1 -5.35198 -14.0176 4.3319 -3.33193
336 1 -7.02655 -12.3277 4.39695 -3.40897
337 1 -3.48806 -14.1484 2.28505 -3.41921
338 1 -1.76688 -12.4308 2.36904 -3.52208
339 1 -1.7608 -14.2983 4.18974 -3.44543
340 1 -3.48555 -12.4137 4.26555 -3.54345
341 1 0.094015 -14.1833 2.17694 -3.52341
342 1 1.74815 -12.3464 2.32934 -3.51335
343 1 1.70249 -14.2337 4.25121 -3.49789
344 1 -0.097886 -12.4068 4.22059 -3.52541
345 1 3.44355 -14.1775 2.26094 -3.43429
346 1 5.36236 -12.5583 2.21537 -3.45049
347 1 5.17412 -14.1076 4.16543 -3.38903
348 1 3.42943 -12.4141 4.3513 -3.44213
349 1 7.24361 -14.2611 2.36646 -3.33804
350 1 8.89632 -12.2322 2.39828 -3.47218
351 1 8.95084 -14.3123 4.20447 -3.06989
352 1 7.13322 -12.4518 4.33854 -3.51067
353 1 10.6033 -13.8936 2.32808 -2.7233
354 1 12.2872 -12.2418 2.45971 -2.85569
355 1 10.5782 -12.3845 4.20351 -3.31706
356 1 -13.7864 -10.4537 2.15831 -2.79702
357 1 -12.1822 -8.59464 2.54743 -3.36601
358 1 -12.2954 -10.4502 4.2901 -3.34142
359 1 -14.0558 -8.82687 4.13006 -3.08491
360 1 -10.5345 -10.4043 2.35783 -3.4666
361 1 -8.76017 -8.7222 2.30026 -3.51735
362 1 -8.75098 -10.5175 4.38626 -3.45953
363 1 -10.5107 -8.5924 4.27832 -3.48736
364 1 -7.12006 -10.7355 2.21288 -3.47823
365 1 -5.48067 -8.85045 2.29936 -3.54301
366 1 -5.40681 -10.7026 4.21894 -3.4984
367 1 -7.19486 -8.78297 4.26105 -3.47068
368 1 -3.62473 -10.6619 2.31254 -3.49473
369 1 -1.90727 -8.91721 2.43068 -3.49121
370 1 -1.78486 -10.5048 4.30367 -3.5059
371 1 -3.65291 -8.94201 4.281 -3.47138
372 1 0.0308661 -10.555 2.35159 -3.45848
373 1 1.69178 -8.95732 2.32875 -3.41692
374 1 1.66482 -10.6599 4.25098 -3.45785
375 1 0.153059 -8.89392 4.38492 -3.44471
376 1 3.58737 -10.557 2.46378 -3.49951
377 1 5.33211 -8.84041 2.49418 -3.49316
378 1 5.37056 -10.683 4.42665 -3.50407
379 1 3.56293 -8.9231 4.24446 -3.51621
380 1 6.97951 -10.6849 2.26832 -3.47106
381 1 8.76048 -8.9814 2.43141 -3.45017
382 1 8.84417 -10.5395 4.30998 -3.49474
383 1 7.13945 -8.78157 4.43124 -3.47326
384 1 10.6611 -10.4188 2.25215 -3.48957
385 1 12.3909 -8.55396 2.33324 -3.42171
386 1 12.4296 -10.5365 4.20658 -3.34995
387 1 10.6513 -8.83187 4.23765 -3.50032
388 1 14.1015 -10.3347 2.25431 -2.76198
389 1 14.4011 -8.78069 4.28586 -3.06351
390 1 -15.7181 -5.18387 2.26134 -3.0029
391 1 -15.6488 -6.86404 4.0783 -2.77081
392 1 -13.9302 -7.09191 2.29945 -3.30452
393 1 -12.3087 -5.15346 2.36124 -3.5247
394 1 -12.53 -6.91224 4.39346 -3.51164
395 1 -14.0904 -5.06234 4.31049 -3.37821
396 1 -10.5878 -6.80421 2.54053 -3.44635
397 1 -8.83539 -5.19386 2.34716 -3.43691
398 1 -8.84051 -6.89636 4.47406 -3.45686
399 1 -10.7097 -5.24474 4.35167 -3.49375
400 1 -7.1681 -6.89088 2.33129 -3.48701
401 1 -5.19849 -5.28158 2.32772 -3.5168
402 1 -5.37893 -7.16125 4.19592 -3.49347
403 1 -6.9731 -5.30452 4.27473 -3.50077
404 1 -3.57388 -7.18082 2.34099 -3.48716
405 1 -1.77644 -5.41241 2.15825 -3.46316
406 1 -1.73987 -7.18934 4.36991 -3.53769
407 1 -3.52328 -5.40564 4.13009 -3.5053
408 1 0.0999017 -7.17203 2.37368 -3.49478
409 1 1.61601 -5.33733 2.32542 -3.50762
410 1 1.65846 -7.04407 4.30833 -3.45636
411 1 0.0526776 -5.29803 4.29822 -3.45257
412 1 3.37996 -7.18925 2.42645 -3.53695
413 1 5.32056 -5.47509 2.30429 -3.50434
414 1 5.31615 -7.09207 4.25638 -3.50746
415 1 3.48421 -5.38962 4.21514 -3.5063
416 1 7.14583 -7.09277 2.51004 -3.50297
417 1 8.82629 -5.3386 2.40488 -3.47579
418 1 8.79991 -7.07033 4.51441 -3.48483
419 1 7.08239 -5.28356 4.36829 -3.54294
420 1 10.4061 -7.22657 2.37495 -3.47297
421 1 12.3536 -5.54247 2.33929 -3.56643
422 1 12.5173 -7.07593 4.24439 -3.50578
423 1 10.519 -5.35826 4.19648 -3.51106
424 1 14.3374 -7.20465 2.25268 -3.2857
425 1 15.9158 -5.47357 2.21806 -2.96238
426 1 15.8722 -6.91121 4.35829 -2.76217
427 1 14.1569 -5.1956 4.17844 -3.43117
428 1 -16.0722 -1.66197 2.24192 -3.07889
429 1 -15.927 -3.36613 4.31761 -3.01696
430 1 -14.053 -3.28305 2.32915 -3.44905
431 1 -12.392 -1.67261 2.46549 -3.45926
432 1 -12.3514 -3.46976 4.40751 -3.44025
433 1 -14.1437 -1.77849 4.29071 -3.42218
434 1 -10.5029 -3.47583 2.51168 -3.49246
435 1 -8.79898 -1.73239 2.48194 -3.52911
436 1 -8.77168 -3.53703 4.29751 -3.52783
437 1 -10.5976 -1.76143 4.28122 -3.50691
438 1 -7.07153 -3.52615 2.36295 -3.5139
439 1 -5.30947 -1.72331 2.27975 -3.50851
440 1 -5.16398 -3.53622 4.34161 -3.51797
441 1 -7.02587 -1.76027 4.36889 -3.50311
442 1 -3.42825 -3.44741 2.30956 -3.50219
443 1 -1.80964 -1.74182 2.30696 -3.45864
444 1 -1.6912 -3.62549 4.32274 -3.50753
445 1 -3.32975 -1.64422 4.40121 -3.47563
446 1 -0.0941005 -3.58223 2.20289 -3.51997
447 1 1.769 -1.92586 2.31642 -3.49038
448 1 1.73814 -3.55122 4.24512 -3.51314
449 1 0.00303784 -1.76737 4.21168 -3.52411
450 1 3.53467 -3.6513 2.3388 -3.50652
451 1 5.25552 -1.91141 2.21513 -3.47604
452 1 5.22858 -3.54322 4.15232 -3.48991
453 1 3.45377 -1.76075 4.24109 -3.51987
454 1 7.03809 -3.67212 2.40322 -3.51297
455 1 8.91052 -1.76381 2.35659 -3.46473
456 1 8.86344 -3.43964 4.1669 -3.49822
457 1 6.95966 -1.90659 4.36437 -3.47253
458 1 10.6295 -3.61488 2.36492 -3.51798
459 1 12.3917 -1.66686 2.40293 -3.48686
460 1 12.2766 -3.54417 4.18121 -3.49869
461 1 10.4869 -1.59089 4.03537 -3.40442
462 1 14.0487 -3.54932 2.31089 -3.45066
463 1 15.9923 -1.9106 2.45256 -3.00354
464 1 16.0148 -3.73746 4.06672 -3.00597
465 1 14.2801 -1.90652 4.0959 -3.43284
466 1 -17.5278 0.18667 2.53306 -2.50898
467 1 -15.9767 2.07266 2.34042 -3.19812
468 1 -15.8338 -0.0145365 4.32277 -3.20366
469 1 -14.1614 0.0153226 2.44455 -3.51437
470 1 -12.3166 1.85924 2.45308 -3.47602
471 1 -12.4859 0.0976099 4.24156 -3.51521
472 1 -14.2943 1.81043 4.42876 -3.49543
473 1 -10.5527 0.0679924 2.44908 -3.49327
474 1 -8.7926 1.7217 2.48633 -3.4556
475 1 -8.7893 0.0925722 4.33136 -3.50784
476 1 -10.5782 1.7841 4.36061 -3.48358
477 1 -7.04346 0.128171 2.23141 -3.47469
478 1 -5.2521 1.73544 2.46781 -3.48209
479 1 -5.30843 0.0112856 4.25059 -3.51045
480 1 -6.96447 1.78719 4.37913 -3.47803
481 1 -3.5271 -0.0439922 2.35857 -3.49778
482 1 -1.64703 1.7319 2.32834 -3.52531
483 1 -1.68245 0.0487228 4.20946 -3.4938
484 1 -3.4584 1.79136 4.21929 -3.52747
485 1 0.106569 -0.0843619 2.31432 -3.51966
486 1 1.66436 1.91813 2.37701 -3.48439
487 1 1.67476 0.0145712 4.40684 -3.42778
488 1 0.172681 1.77206 4.33949 -3.39712
489 1 3.524 -0.161515 2.29995 -3.49104
490 1 5.28554 1.80244 2.40098 -3.47631
491 1 5.24062 -0.0849541 4.26436 -3.5248
492 1 3.41578 1.65563 4.26744 -3.49778
493 1 7.02638 -0.0387986 2.4173 -3.48656
494 1 8.81141 1.48514 2.13958 -3.46066
495 1 8.74777 0.0387936 4.23738 -3.49541
496 1 7.08243 1.90551 4.2246 -3.50132
497 1 10.6847 0.0112504 2.28858 -3.38657
498 1 12.4059 1.87827 2.29904 -3.5132
499 1 12.6163 0.00737557 4.22589 -3.48895
500 1 10.7763 1.57081 4.15499 -3.46397
501 1 14.2813 0.138058 2.3297 -3.53171
502 1 16.1088 1.97322 2.27831 -3.0736
503 1 15.8607 0.271006 4.24769 -3.24864
504 1 14.1392 2.0437 4.29898 -3.47238
505 1 17.3194 -0.0438606 2.27636 -2.39041
506 1 -15.8367 5.27954 2.35247 -2.9854
507 1 -15.9373 3.88981 4.32549 -3.11813
508 1 -14.089 3.48446 2.45758 -3.40497
509 1 -12.5756 5.40139 2.36499 -3.46735
510 1 -12.4729 3.41158 4.41972 -3.45591
511 1 -13.9664 5.24919 4.25831 -3.28629
512 1 -10.5689 3.65159 2.42734 -3.52936
513 1 -8.66221 5.26175 2.27247 -3.42873
514 1 -8.78134 3.57687 4.39248 -3.52393
515 1 -10.664 5.3791 4.40349 -3.48327
516 1 -7.04894 3.4453 2.48914 -3.49716
517 1 -5.25111 5.28611 2.50594 -3.48252
518 1 -5.28204 3.57844 4.25185 -3.48872
519 1 -6.97557 5.3648 4.3658 -3.51274
520 1 -3.4328 3.51237 2.33541 -3.52769
521 1 -1.72091 5.37247 2.4389 -3.48086
522 1 -1.75545 3.5608 4.3514 -3.5349
523 1 -3.51979 5.28624 4.51902 -3.45166
524 1 -0.0619162 3.64596 2.47689 -3.46369
525 1 1.71617 5.31761 2.50746 -3.48209
526 1 1.69869 3.52129 4.29314 -3.44436
527 1 0.0195017 5.37483 4.32783 -3.47756
528 1 3.50755 3.72831 2.44282 -3.46331
529 1 5.33564 5.32232 2.44964 -3.46515
530 1 5.09316 3.39298 4.24755 -3.44506
531 1 3.40758 5.39274 4.29029 -3.5211
532 1 6.97134 3.46681 2.20884 -3.47492
533 1 8.81023 5.13615 2.31202 -3.4605
534 1 9.02276 3.41306 4.30139 -3.49493
535 1 6.91038 5.00051 4.29196 -3.4898
536 1 10.5444 3.52021 2.27533 -3.47585
537 1 12.3597 5.33288 2.34248 -3.48854
538 1 12.2272 3.54217 4.30766 -3.50273
539 1 10.5409 5.47478 4.22432 -3.48329
540 1 14.2042 3.61722 2.32849 -3.42571
541 1 15.747 5.34452 2.33843 -2.98974
542 1 16.0607 3.65945 4.22846 -3.02282
543 1 14.1193 5.26695 4.29445 -3.47061
544 1 -15.7238 6.83239 4.19277 -2.76486
545 1 -14.2523 7.20521 2.42547 -3.28171
546 1 -12.2759 8.71026 2.48062 -3.48392
547 1 -12.382 7.06204 4.32582 -3.46643
548 1 -14.1992 8.93305 4.39892 -3.08472
549 1 -10.3894 7.05599 2.5625 -3.49633
550 1 -8.73852 8.92843 2.50196 -3.50112
551 1 -8.73306 7.12873 4.49011 -3.48245
552 1 -10.451 8.97364 4.18083 -3.44647
553 1 -6.96263 6.97585 2.49366 -3.47169
554 1 -5.27643 8.85205 2.49832 -3.52305
555 1 -5.0595 7.07789 4.43368 -3.46807
556 1 -6.90389 8.7463 4.42552 -3.50156
557 1 -3.48941 6.96642 2.4904 -3.49017
558 1 -1.839 8.83068 2.36295 -3.50878
559 1 -1.64047 7.00807 4.36339 -3.49435
560 1 -3.45674 8.94202 4.3479 -3.46046
561 1 0.0527142 7.18299 2.23374 -3.46089
562 1 1.74419 8.90128 2.23196 -3.45611
563 1 1.70967 7.25634 4.27351 -3.50171
564 1 -0.0117376 8.89907 4.23228 -3.49586
565 1 3.52808 7.19593 2.27086 -3.47877
566 1 5.29781 8.80452 2.4943 -3.51367
567 1 5.30561 7.02061 4.30154 -3.49146
568 1 3.49555 8.93413 4.28512 -3.52545
569 1 7.14115 6.88904 2.37571 -3.47994
570 1 8.81176 8.73617 2.27034 -3.4975
571 1 8.72357 7.05564 4.32432 -3.44159
572 1 7.22922 8.85734 4.232 -3.45611
573 1 10.4801 7.00241 2.31914 -3.50642
574 1 12.2257 8.89357 2.29304 -3.47673
575 1 12.3477 7.14029 4.32472 -3.461
576 1 10.496 8.70541 4.18134 -3.49969
577 1 13.9131 7.05444 2.42961 -3.35924
578 1 15.8536 7.02131 4.08371 -2.72269
579 1 14.0166 8.80448 4.29033 -3.10594
580 1 -13.9608 10.475 2.21922 -2.72798
581 1 -12.4045 12.2494 2.33959 -2.81664
582 1 -12.2826 10.7063 4.25675 -3.34809
583 1 -10.6528 10.6509 2.31272 -3.47054
584 1 -8.73015 12.3459 2.34863 -3.42998
585 1 -8.84155 10.7283 4.40512 -3.4656
586 1 -10.49 12.4628 4.20343 -3.25654
587 1 -6.96174 10.628 2.47783 -3.48326
588 1 -5.19944 12.3879 2.27398 -3.49099
589 1 -5.12007 10.635 4.33991 -3.49136
590 1 -7.04007 12.2847 4.42052 -3.45319
591 1 -3.39408 10.683 2.4282 -3.47989
592 1 -1.74992 12.4932 2.45923 -3.44452
593 1 -1.84093 10.7089 4.44859 -3.44079
594 1 -3.31356 12.5198 4.20943 -3.42956
595 1 -0.0226501 10.7521 2.44762 -3.51226
596 1 1.56397 12.6124 2.44998 -3.45378
597 1 1.63032 10.6941 4.43122 -3.48986
598 1 -0.146508 12.4514 4.41425 -3.50012
599 1 3.42019 10.7043 2.35314 -3.49215
600 1 5.19277 12.2835 2.39451 -3.46748
601 1 5.26273 10.7275 4.46248 -3.46692
602 1 3.35417 12.4111 4.34641 -3.53003
603 1 7.08059 10.5648 2.42327 -3.52035
604 1 8.79466 12.3541 2.36913 -3.43049
605 1 8.87554 10.6167 4.28262 -3.51075
606 1 7.01051 12.3221 4.36444 -3.48177
607 1 10.5079 10.6327 2.3409 -3.46011
608 1 12.3548 12.2037 2.33642 -2.86683
609 1 12.1357 10.4897 4.27289 -3.35402
610 1 10.5974 12.3604 4.31502 -3.29354
611 1 14.1866 10.3184 2.33965 -2.63714
612 1 -10.4301 13.962 2.26134 -2.74221
613 1 -8.80568 14.0045 4.18544 -3.07112
614 1 -6.92434 14.0085 2.46976 -3.3166
615 1 -5.44438 15.8612 2.07773 -2.93151
616 1 -5.24604 13.9587 4.26952 -3.40331
617 1 -6.97638 15.8104 4.21394 -2.71574
618 1 -3.50692 14.2795 2.41123 -3.42985
619 1 -2.01235 16.0777 2.15851 -3.0047
620 1 -1.77017 14.4788 4.34063 -3.4778
621 1 -3.76722 15.957 4.26718 -3.00061
622 1 -0.120457 14.315 2.43523 -3.50149
623 1 1.88406 15.815 2.40929 -3.09422
624 1 1.56121 14.1529 4.32419 -3.43239
625 1 0.0470498 16.1689 4.43488 -3.16963
626 1 3.51023 14.0151 2.40785 -3.38331
627 1 5.14824 15.6277 2.44897 -2.99512
628 1 5.24903 14.1622 4.42973 -3.41845
629 1 3.29639 15.7938 4.47893 -3.03225
630 1 6.97841 13.9368 2.49961 -3.35676
631 1 8.88201 14.0721 4.35509 -3.12644
632 1 6.93589 15.8564 4.23547 -2.70253
633 1 10.6136 14.0464 2.56934 -2.68867
634 1 0.0954608 17.197 2.07373 -2.38886
635 1 -5.06275 -15.9232 6.28775 -3.01965
636 1 -6.85152 -15.8117 8.03302 -2.7303
637 1 -1.99425 -16.0203 6.12839 -3.03311
638 1 -3.45216 -16.0478 8.22908 -2.98619
639 1 0.0551866 -17.0812 5.95752 -2.42342
640 1 2.00035 -15.7453 6.32565 -3.08067
641 1 0.0246429 -15.8135 8.11654 -3.16106
642 1 5.19213 -15.814 6.44306 -2.98789
643 1 3.62392 -15.686 8.31597 -3.03592
644 1 6.839 -15.8227 8.24889 -2.72239
645 1 -12.3241 -12.3388 6.10801 -2.82383
646 1 -10.5 -14.2109 6.04771 -2.66346
647 1 -8.72233 -12.4663 6.26327 -3.45328
648 1 -8.77127 -14.1479 8.10516 -3.10921
649 1 -10.6785 -12.4929 8.10372 -3.32454
650 1 -6.99534 -14.1373 6.27874 -3.35115
651 1 -5.15924 -12.4258 6.31209 -3.47169
652 1 -5.17577 -14.0908 8.10864 -3.42412
653 1 -7.03146 -12.4952 8.33629 -3.45694
654 1 -3.54003 -14.0678 6.15232 -3.39293
655 1 -1.87149 -12.2485 6.29097 -3.46527
656 1 -1.66909 -14.1713 8.15031 -3.45432
657 1 -3.45376 -12.3935 8.26949 -3.49138
658 1 -0.10109 -14.1657 6.10974 -3.56298
659 1 1.74375 -12.4073 6.09726 -3.46675
660 1 1.69451 -14.1297 8.27334 -3.44043
661 1 -0.0282644 -12.3789 8.12957 -3.46328
662 1 3.56829 -14.0278 6.08786 -3.36622
663 1 5.41779 -12.3483 6.26767 -3.48628
664 1 5.38902 -14.0265 8.11667 -3.34304
665 1 3.63425 -12.2961 8.20735 -3.52084
666 1 7.15196 -14.2608 6.17049 -3.33511
667 1 8.9107 -12.4906 6.13016 -3.47447
668 1 8.99683 -14.408 7.90652 -3.03402
669 1 7.23824 -12.514 8.24108 -3.48934
670 1 10.8225 -14.016 6.14339 -2.6921
671 1 12.3778 -12.1338 6.13936 -2.86972
672 1 10.662 -12.403 8.08373 -3.35994
673 1 -13.9746 -10.6614 6.21498 -2.67942
674 1 -12.3253 -8.78704 6.10065 -3.46331
675 1 -12.3767 -10.6144 8.01523 -3.30261
676 1 -14.1781 -8.90512 8.28714 -3.05426
677 1 -10.6614 -10.6211 6.22784 -3.46038
678 1 -8.95425 -8.8744 6.16613 -3.5001
679 1 -8.92171 -10.6126 8.1573 -3.52111
680 1 -10.6522 -8.84348 8.16737 -3.48712
681 1 -7.07753 -10.5664 6.27663 -3.46542
682 1 -5.45352 -8.84189 6.08331 -3.4873
683 1 -5.47586 -10.5576 8.16659 -3.4938
684 1 -7.24091 -8.84334 8.08007 -3.4839
685 1 -3.56098 -10.5011 6.10212 -3.46795
686 1 -1.74695 -8.86134 6.20122 -3.50167
687 1 -1.66385 -10.5923 8.18727 -3.49749
688 1 -3.65558 -8.86129 8.16828 -3.47662
689 1 -0.0229996 -10.7941 6.19664 -3.47022
690 1 1.74442 -8.88196 6.26042 -3.52894
691 1 1.70293 -10.6902 8.09242 -3.50892
692 1 -0.026381 -8.79429 8.05559 -3.51529
693 1 3.53681 -10.6582 6.22453 -3.53157
694 1 5.27544 -8.72763 6.241 -3.52081
695 1 5.42169 -10.561 8.12526 -3.51968
696 1 3.51288 -8.87866 8.08133 -3.52127
697 1 7.04121 -10.5118 6.29596 -3.46614
698 1 8.78605 -8.77919 6.38659 -3.44203
699 1 8.9134 -10.6218 8.04054 -3.50864
700 1 7.30658 -8.67653 8.25682 -3.43387
701 1 10.6554 -10.5668 6.08778 -3.46474
702 1 12.3607 -8.77673 6.10266 -3.46058
703 1 12.518 -10.5721 8.0632 -3.31786
704 1 10.7209 -8.89256 7.9758 -3.5067
705 1 14.1901 -10.3199 6.11268 -2.71898
706 1 14.222 -8.58069 7.92802 -3.09424
707 1 -15.8584 -5.28628 6.019 -3.00609
708 1 -15.9799 -6.7929 8.12749 -2.66168
709 1 -14.3237 -7.29102 6.26213 -3.30741
710 1 -12.5373 -5.18622 6.23078 -3.49814
711 1 -12.3536 -6.9069 8.15988 -3.48474
712 1 -14.1152 -5.2262 8.13189 -3.43195
713 1 -10.7885 -6.85459 6.29354 -3.47775
714 1 -9.00512 -5.1457 6.26545 -3.46832
715 1 -8.96601 -7.05452 8.11517 -3.52385
716 1 -10.6571 -5.02162 8.04226 -3.45913
717 1 -7.26586 -6.91226 6.2455 -3.48491
718 1 -5.26005 -5.4236 6.20556 -3.48058
719 1 -5.32513 -7.12384 8.09573 -3.49648
720 1 -7.13993 -5.18828 8.07722 -3.52296
721 1 -3.61839 -7.18498 6.14325 -3.51706
722 1 -1.78538 -5.33551 6.24414 -3.51925
723 1 -1.85194 -7.17782 8.02476 -3.50014
724 1 -3.60489 -5.34116 8.02977 -3.50047
725 1 -0.031994 -7.0155 6.14677 -3.48417
726 1 1.71234 -5.24144 6.18824 -3.50059
727 1 1.75628 -6.9399 8.12407 -3.49433
728 1 -0.0636988 -5.3642 8.19965 -3.51321
729 1 3.43045 -6.92511 6.15824 -3.47258
730 1 5.09713 -5.18935 6.12943 -3.47005
731 1 5.26771 -7.03285 8.14176 -3.52504
732 1 3.52402 -5.29643 8.07596 -3.49526
733 1 7.0597 -6.99974 6.33837 -3.52042
734 1 8.99536 -5.13905 6.24772 -3.47011
735 1 8.95161 -6.96254 8.01901 -3.47129
736 1 7.1554 -5.26151 8.12022 -3.50714
737 1 10.7193 -6.92655 6.20064 -3.48861
738 1 12.4252 -5.21663 6.10129 -3.50524
739 1 12.4146 -6.95308 8.00227 -3.49409
740 1 10.7423 -5.11485 8.16326 -3.49737
741 1 14.3243 -6.93416 6.21797 -3.35294
742 1 16.0879 -5.17711 6.11262 -2.96353