LAMMPS (7 Feb 2024 - Update 1)
OMP_NUM_THREADS environment is not set. Defaulting to 1 thread. (src/comm.cpp:98)
  using 1 OpenMP thread(s) per MPI task
Lattice spacing in x,y,z = 3.615 3.615 3.615
Created orthogonal box = (-36.15 -36.15 0) to (36.15 36.15 43.38)
  1 by 1 by 1 MPI processor grid
Created 3804 atoms
  using lattice units in orthogonal box = (-36.15723 -36.15723 0) to (36.15723 36.15723 43.38)
  create_atoms CPU = 0.003 seconds
Reading eam potential file Cu_u3.eam with DATE: 2007-06-11
Neighbor list info ...
  update: every = 1 steps, delay = 0 steps, check = yes
  max neighbors/atom: 2000, page size: 100000
  master list distance cutoff = 6.95
  ghost atom cutoff = 6.95
  binsize = 3.475, bins = 21 21 13
  1 neighbor lists, perpetual/occasional/extra = 1 0 0
  (1) pair eam, perpetual
      attributes: half, newton on
      pair build: half/bin/atomonly/newton
      stencil: half/bin/3d
      bin: standard
Setting up cg style minimization ...
  Unit style    : metal
  Current step  : 0
Per MPI rank memory allocation (min/avg/max) = 5.305 | 5.305 | 5.305 Mbytes
   Step          Temp          E_pair         E_mol          TotEng         Press          Volume    
         0   0             -12992.042      0             -12992.042     -14412.671      56735.321    
        12   0             -13003.035      0             -13003.035     -2132.8627      56735.321    
Loop time of 0.129767 on 1 procs for 12 steps with 3804 atoms

96.0% CPU use with 1 MPI tasks x 1 OpenMP threads

Minimization stats:
  Stopping criterion = energy tolerance
  Energy initial, next-to-last, final = 
     -12992.0418164024  -13003.0237430471  -13003.0346472216
  Force two-norm initial, final = 10.857533 0.2269387
  Force max component initial, final = 0.88159928 0.0057822181
  Final line search alpha, max atom move = 1 0.0057822181
  Iterations, force evaluations = 12 23

MPI task timing breakdown:
Section |  min time  |  avg time  |  max time  |%varavg| %total
---------------------------------------------------------------
Pair    | 0.12762    | 0.12762    | 0.12762    |   0.0 | 98.35
Neigh   | 0          | 0          | 0          |   0.0 |  0.00
Comm    | 0.00017446 | 0.00017446 | 0.00017446 |   0.0 |  0.13
Output  | 0          | 0          | 0          |   0.0 |  0.00
Modify  | 0          | 0          | 0          |   0.0 |  0.00
Other   |            | 0.001969   |            |       |  1.52

Nlocal:           3804 ave        3804 max        3804 min
Histogram: 1 0 0 0 0 0 0 0 0 0
Nghost:           1107 ave        1107 max        1107 min
Histogram: 1 0 0 0 0 0 0 0 0 0
Neighs:         216156 ave      216156 max      216156 min
Histogram: 1 0 0 0 0 0 0 0 0 0

Total # of neighbors = 216156
Ave neighs/atom = 56.823344
Neighbor list builds = 0
Dangerous builds = 0
Setting up Verlet run ...
  Unit style    : metal
  Current step  : 0
  Time step     : 0.001
Per MPI rank memory allocation (min/avg/max) = 4.18 | 4.18 | 4.18 Mbytes
   Step          Temp          PotEng         Press           Pzz             Lz      
         0   300           -13003.035      661.37232     -3777.4349      43.38        
       500   244.85501     -12879.991     -7281.2803     -10321.89       43.38        
      1000   309.83345     -12844.185     -309.82615     -3309.1454      43.38        
      1500   300.44221     -12848.125      999.34542     -2610.4781      43.38        
      2000   297.75783     -12848.143     -5626.5156     -8431.5581      43.38        
      2500   295.08168     -12856.616      861.41188     -2479.7988      43.38        
      3000   295.34458     -12849.37      -5573.3393     -8354.3717      43.38        
      3500   299.9889      -12849.338     -816.66452     -3790.2972      43.38        
      4000   300.91093     -12847.325     -2241.0538     -5216.4757      43.38        
      4500   298.47741     -12850.057     -3618.049      -6643.7572      43.38        
      5000   293.66116     -12853.035      51.657686     -3467.8244      43.38        
      5500   296.8009      -12850.185     -3255.8563     -6002.1378      43.38        
      6000   300.57113     -12849.704     -362.54551     -3568.8717      43.38        
      6500   296.47924     -12848.599     -138.95377     -3429.7179      43.38        
      7000   301.43865     -12847.602     -3162.8121     -6211.5286      43.38        
      7500   298.89527     -12847.777      2246.7575     -1261.1155      43.38        
      8000   296.52925     -12850.587     -3700.6        -6559.0251      43.38        
      8500   295.03181     -12851.929      235.60141     -3031.4064      43.38        
      9000   304.52952     -12850.3       -820.21901     -4161.0472      43.38        
      9500   306.06411     -12850.019     -3382.8681     -6324.4582      43.38        
     10000   297.68071     -12851.829      1626.8195     -1388.248       43.38        
     10500   301.20057     -12847.355     -5056.6107     -7941.0192      43.38        
     11000   297.244       -12851.358     -62.902289     -3314.0479      43.38        
     11500   298.79432     -12850.655     -3011.9543     -5594.7323      43.38        
     12000   302.09293     -12849.112     -2420.4859     -5761.9107      43.38        
     12500   300.46225     -12852.294     -105.43114     -3169.9218      43.38        
     13000   292.67018     -12848.794     -3597.251      -5969.9956      43.38        
     13500   294.74401     -12850.643      422.47513     -2838.7214      43.38        
     14000   302.84744     -12850.495     -2833.1349     -5661.174       43.38        
     14500   300.03371     -12852.255     -1501.9617     -4615.481       43.38        
     15000   295.13924     -12855.328     -1437.9068     -4547.275       43.38        
     15500   300.86985     -12847.076     -2231.2627     -5111.252       43.38        
     16000   300.67199     -12849.226     -602.14552     -3591.6735      43.38        
     16500   298.04887     -12851.312     -1163.0595     -4503.1843      43.38        
     17000   304.22969     -12851.377     -1645.6024     -5064.8225      43.38        
     17500   298.94715     -12853.242      539.10809     -2480.2407      43.38        
     18000   296.00908     -12846.93      -3185.5008     -5963.0762      43.38        
     18500   304.82697     -12849.929      758.30179     -2545.361       43.38        
     19000   300.15365     -12850.553     -1698.96       -4766.5423      43.38        
     19500   306.63173     -12850.333     -2049.5105     -5029.5723      43.38        
     20000   296.13294     -12848.335     -460.23467     -3452.717       43.38        
Loop time of 108.97 on 1 procs for 20000 steps with 3804 atoms

Performance: 15.858 ns/day, 1.513 hours/ns, 183.537 timesteps/s, 698.175 katom-step/s
96.0% CPU use with 1 MPI tasks x 1 OpenMP threads

MPI task timing breakdown:
Section |  min time  |  avg time  |  max time  |%varavg| %total
---------------------------------------------------------------
Pair    | 106.86     | 106.86     | 106.86     |   0.0 | 98.06
Neigh   | 0.33148    | 0.33148    | 0.33148    |   0.0 |  0.30
Comm    | 0.14651    | 0.14651    | 0.14651    |   0.0 |  0.13
Output  | 0.0021686  | 0.0021686  | 0.0021686  |   0.0 |  0.00
Modify  | 1.3459     | 1.3459     | 1.3459     |   0.0 |  1.24
Other   |            | 0.2885     |            |       |  0.26

Nlocal:           3804 ave        3804 max        3804 min
Histogram: 1 0 0 0 0 0 0 0 0 0
Nghost:           1108 ave        1108 max        1108 min
Histogram: 1 0 0 0 0 0 0 0 0 0
Neighs:         210474 ave      210474 max      210474 min
Histogram: 1 0 0 0 0 0 0 0 0 0

Total # of neighbors = 210474
Ave neighs/atom = 55.329653
Neighbor list builds = 54
Dangerous builds = 0
Setting up Verlet run ...
  Unit style    : metal
  Current step  : 0
  Time step     : 0.001
Per MPI rank memory allocation (min/avg/max) = 4.305 | 4.305 | 4.305 Mbytes
   Step          Temp         v_strain     v_stress_GPa      PotEng           Lz           Press     
         0   296.13294      0              0.34473871    -12848.335      43.38         -459.52421    
      2000   298.1254       0.002          0.55871984    -12850.876      43.46676      -2174.8961    
      4000   298.99495      0.004          0.75508912    -12852.192      43.55352      -3165.5853    
      6000   292.81665      0.006          0.66687594    -12846.372      43.64028      -1739.8913    
      8000   296.92037      0.008          0.84180676    -12847.803      43.72704      -3240.3321    
     10000   299.45548      0.01           0.87384384    -12848.927      43.8138       -3523.6735    
     12000   294.30071      0.012          0.75337437    -12846.568      43.90056      -1384.9206    
     14000   299.12107      0.014          1.0369598     -12842.147      43.98732      -3947.065     
     16000   307.93069      0.016          0.98545761    -12847.114      44.07408      -2869.681     
     18000   298.07833      0.018          1.1235626     -12846.827      44.16084      -3573.7805    
     20000   294.96543      0.02           1.2453167     -12842.116      44.2476       -4694.3675    
     22000   294.37486      0.022          1.2825556     -12844.343      44.33436      -4150.5677    
     24000   299.98039      0.024          1.3941887     -12841.156      44.42112      -4706.2576    
     26000   302.44201      0.026          1.4217828     -12841.442      44.50788      -4383.0104    
     28000   303.57857      0.028          1.4442399     -12838.594      44.59464      -4054.99      
     30000   298.58376      0.03           1.7342948     -12833.194      44.6814       -6762.8654    
     32000   298.89326      0.032          1.6867407     -12837.838      44.76816      -4902.907     
     34000   296.09275      0.034          1.8816521     -12834.475      44.85492      -6932.2841    
     36000   300.68788      0.036          1.8937426     -12832.258      44.94168      -6183.5469    
     38000   295.13204      0.038          1.9175682     -12834.272      45.02844      -5519.8223    
     40000   293.7251       0.04           2.1257418     -12830.915      45.1152       -7383.7944    
     42000   297.79513      0.042          2.1645313     -12822.757      45.20196      -6829.4283    
     44000   299.46701      0.044          2.2108899     -12823.533      45.28872      -6587.8496    
     46000   299.79889      0.046          2.5243897     -12825.954      45.37548      -9258.8081    
     48000   305.96044      0.048          2.5219815     -12819.128      45.46224      -8458.582     
     50000   305.35961      0.05           2.5382271     -12818.113      45.549        -8400.8556    
     52000   303.83406      0.052          2.7186421     -12813.344      45.63576      -9150.6912    
     54000   304.14121      0.054          2.5645192     -12814.203      45.72252      -6956.8422    
     56000   298.1139       0.056          2.9290256     -12812.536      45.80928      -9950.4613    
     58000   302.29554      0.058          2.8806494     -12809.235      45.89604      -8901.0401    
     60000   297.77755      0.06           3.0785671     -12808.192      45.9828       -10126.539    
     62000   291.60458      0.062          3.2468909     -12801.526      46.06956      -11258.688    
     64000   299.39427      0.064          3.3214092     -12802.423      46.15632      -11285.105    
     66000   305.4969       0.066          3.4355723     -12801.38       46.24308      -11368.953    
     68000   294.9857       0.068          3.5369068     -12795.115      46.32984      -12091.311    
     70000   295.49787      0.07           3.6001744     -12791.885      46.4166       -11482.265    
     72000   297.7172       0.072          3.7460587     -12788.264      46.50336      -12227.982    
     74000   300.82516      0.074          3.7941387     -12787.524      46.59012      -12335.931    
     76000   304.41925      0.076          3.973006      -12784.872      46.67688      -13623.241    
     78000   301.22228      0.078          4.1214018     -12779.407      46.76364      -14720.089    
     80000   302.34953      0.08           4.1591863     -12777.176      46.8504       -14387.335    
     82000   295.76059      0.082          4.2690905     -12773.696      46.93716      -14679.673    
     84000   303.56113      0.084          4.2706473     -12770.53       47.02392      -13562.9      
     86000   295.57133      0.086          4.3682536     -12766.786      47.11068      -13641.067    
     88000   301.03785      0.088          4.5865834     -12764.667      47.19744      -15588.225    
     90000   303.21012      0.09           4.6996987     -12757.691      47.2842       -16342        
     92000   296.80882      0.092          4.6848651     -12758.581      47.37096      -15362.216    
     94000   296.13873      0.094          4.6428952     -12750.106      47.45772      -15714.201    
     96000   304.51859      0.096          4.2967721     -12754.665      47.54448      -14748.562    
     98000   293.20714      0.098          3.8152521     -12759.613      47.63124      -13398.627    
    100000   299.33893      0.1            2.8949421     -12775.6        47.718        -9606.6095    
    102000   293.79954      0.102          1.6277281     -12803.43       47.80476      -4884.1297    
    104000   297.84814      0.104          2.1674826     -12803.401      47.89152      -8428.6984    
    106000   295.53406      0.106          2.1923606     -12799.243      47.97828      -7738.8244    
    108000   297.63434      0.108          2.3104762     -12805.882      48.06504      -6908.7968    
    110000   300.2492       0.11           2.6565152     -12801.673      48.1518       -9338.6033    
    112000   297.40194      0.112          2.5554618     -12805.087      48.23856      -7629.8276    
    114000   306.00225      0.114          2.638769      -12797.7        48.32532      -8153.2677    
    116000   300.95024      0.116          2.8606373     -12794.767      48.41208      -10032.594    
    118000   300.57005      0.118          2.791434      -12794.932      48.49884      -8632.0275    
    120000   304.27987      0.12           3.0419067     -12787.694      48.5856       -10629.983    
    122000   298.27651      0.122          3.095705      -12785.649      48.67236      -10688.95     
    124000   293.78702      0.124          3.1991053     -12785.416      48.75912      -10999.246    
    126000   305.3653       0.126          3.3502143     -12782.084      48.84588      -11939.898    
    128000   300.29697      0.128          3.3951392     -12776.409      48.93264      -11471.638    
    130000   298.8759       0.13           3.4924045     -12776.25       49.0194       -11507.885    
    132000   305.12976      0.132          3.7046085     -12770.549      49.10616      -12669.283    
    134000   298.04233      0.134          3.5429844     -12768.856      49.19292      -11800.468    
    136000   300.55395      0.136          3.8134183     -12767.775      49.27968      -12866.938    
    138000   299.69989      0.138          3.885536      -12763.865      49.36644      -13499.173    
    140000   296.97508      0.14           3.8972234     -12761.2        49.4532       -13511.766    
    142000   304.50599      0.142          4.0103364     -12756.774      49.53996      -13722.492    
    144000   308.83958      0.144          4.0618942     -12756.509      49.62672      -13263.405    
    146000   292.58129      0.146          3.9909479     -12751.707      49.71348      -13195.902    
    148000   301.80198      0.148          3.8558206     -12756.869      49.80024      -13167.568    
    150000   310.00878      0.15           3.5593978     -12753.958      49.887        -11871.315    
    152000   299.37418      0.152          3.5876233     -12759.489      49.97376      -12373.018    
    154000   302.56704      0.154          3.386886      -12767.712      50.06052      -10880.333    
    156000   300.84651      0.156          3.4875624     -12769.581      50.14728      -11078.319    
    158000   298.76228      0.158          3.5582579     -12764.486      50.23404      -11651.694    
    160000   304.28467      0.16           3.7010357     -12759.987      50.3208       -12526.841    
    162000   294.63633      0.162          3.6280145     -12759.34       50.40756      -11395.926    
    164000   298.8847       0.164          3.7165775     -12760.518      50.49432      -12381.002    
    166000   302.38537      0.166          3.1824156     -12776.396      50.58108      -10939.492    
    168000   299.59887      0.168          3.1346895     -12780.658      50.66784      -11525.499    
    170000   299.09214      0.17           3.0912846     -12783.021      50.7546       -9882.5908    
    172000   293.105        0.172          3.2072979     -12781.32       50.84136      -9847.5504    
    174000   297.8508       0.174          3.2348942     -12777.761      50.92812      -10025.312    
    176000   298.52006      0.176          3.6284609     -12773.928      51.01488      -12099.955    
    178000   307.2666       0.178          3.6086256     -12772.084      51.10164      -12578.407    
    180000   302.56517      0.18           3.8151378     -12764.326      51.1884       -13041.904    
    182000   294.07507      0.182          3.739629      -12760.595      51.27516      -11370.339    
    184000   303.92626      0.184          3.9206044     -12760.482      51.36192      -12978.063    
    186000   307.32525      0.186          3.7099107     -12760.483      51.44868      -12493.287    
    188000   294.25575      0.188          3.5696817     -12768.803      51.53544      -11894.448    
    190000   300.00692      0.19           3.710674      -12768.856      51.6222       -12701.335    
    192000   297.82742      0.192          3.6656782     -12770.101      51.70896      -12091.178    
    194000   303.0272       0.194          3.7170165     -12763.396      51.79572      -11875.03     
    196000   296.86581      0.196          3.9073562     -12761.152      51.88248      -13100.8      
    198000   299.84119      0.198          4.2399636     -12759.193      51.96924      -15353.742    
    200000   296.4779       0.2            4.0578254     -12755.47       52.056        -13823.001    
Loop time of 1183.04 on 1 procs for 200000 steps with 3804 atoms

Performance: 14.606 ns/day, 1.643 hours/ns, 169.056 timesteps/s, 643.091 katom-step/s
96.0% CPU use with 1 MPI tasks x 1 OpenMP threads

MPI task timing breakdown:
Section |  min time  |  avg time  |  max time  |%varavg| %total
---------------------------------------------------------------
Pair    | 1140.4     | 1140.4     | 1140.4     |   0.0 | 96.40
Neigh   | 3.9788     | 3.9788     | 3.9788     |   0.0 |  0.34
Comm    | 1.4528     | 1.4528     | 1.4528     |   0.0 |  0.12
Output  | 0.85069    | 0.85069    | 0.85069    |   0.0 |  0.07
Modify  | 33.157     | 33.157     | 33.157     |   0.0 |  2.80
Other   |            | 3.204      |            |       |  0.27

Nlocal:           3804 ave        3804 max        3804 min
Histogram: 1 0 0 0 0 0 0 0 0 0
Nghost:           1019 ave        1019 max        1019 min
Histogram: 1 0 0 0 0 0 0 0 0 0
Neighs:         192676 ave      192676 max      192676 min
Histogram: 1 0 0 0 0 0 0 0 0 0

Total # of neighbors = 192676
Ave neighs/atom = 50.650894
Neighbor list builds = 625
Dangerous builds = 0
Total wall time: 0:21:32
