LAMMPS (7 Feb 2024 - Update 1)
OMP_NUM_THREADS environment is not set. Defaulting to 1 thread. (src/comm.cpp:98)
  using 1 OpenMP thread(s) per MPI task
# Copper with Mishin EAM potential (alternative parameterization)
units           metal
atom_style      atomic
boundary        p p p

lattice         fcc 3.615
Lattice spacing in x,y,z = 3.615 3.615 3.615
region          box block 0 4 0 4 0 4
create_box      1 box
Created orthogonal box = (0 0 0) to (14.46 14.46 14.46)
  1 by 1 by 1 MPI processor grid
create_atoms    1 box
Created 256 atoms
  using lattice units in orthogonal box = (0 0 0) to (14.46 14.46 14.46)
  create_atoms CPU = 0.001 seconds
mass            1 63.546

pair_style      eam/alloy
pair_coeff      * * Cu_mishin1.eam.alloy Cu		#'* *' means "apply to all type pairs.
Reading eam/alloy potential file Cu_mishin1.eam.alloy with DATE: 2007-10-12

velocity        all create 300 12345 dist gaussian
fix             1 all nvt temp 300 300 0.1
timestep        0.001

thermo          100
thermo_style    custom step temp pe ke etotal press vol density
run             5000
Neighbor list info ...
  update: every = 1 steps, delay = 0 steps, check = yes
  max neighbors/atom: 2000, page size: 100000
  master list distance cutoff = 7.50679
  ghost atom cutoff = 7.50679
  binsize = 3.753395, bins = 4 4 4
  1 neighbor lists, perpetual/occasional/extra = 1 0 0
  (1) pair eam/alloy, perpetual
      attributes: half, newton on
      pair build: half/bin/atomonly/newton
      stencil: half/bin/3d
      bin: standard
Per MPI rank memory allocation (min/avg/max) = 3.411 | 3.411 | 3.411 Mbytes
   Step          Temp          PotEng         KinEng         TotEng         Press          Volume        Density    
         0   300           -906.29589      9.8884011     -896.40749      3407.3097      3023.4645      8.9351058    
       100   150.09605     -900.48595      4.9473664     -895.53858      11114.818      3023.4645      8.9351058    
       200   206.91403     -900.30949      6.8201631     -893.48932      11436.33       3023.4645      8.9351058    
       300   223.87635     -898.42773      7.3792638     -891.04847      15391.811      3023.4645      8.9351058    
       400   250.84855     -896.8404       8.2683036     -888.57209      17582.196      3023.4645      8.9351058    
       500   247.94601     -894.66338      8.1726318     -886.49074      21649.754      3023.4645      8.9351058    
       600   358.54157     -896.96604      11.81801      -885.14803      18951.812      3023.4645      8.9351058    
       700   312.7381      -895.67997      10.308266     -885.37171      20954.476      3023.4645      8.9351058    
       800   282.18028     -895.93241      9.3010393     -886.63137      19380.722      3023.4645      8.9351058    
       900   261.50904     -896.06296      8.6196876     -887.44327      19433.551      3023.4645      8.9351058    
      1000   265.60016     -896.36468      8.7545365     -887.61014      18677.544      3023.4645      8.9351058    
      1100   261.76771     -895.55446      8.6282138     -886.92624      20008.604      3023.4645      8.9351058    
      1200   290.04734     -895.47226      9.560348      -885.91191      20788.414      3023.4645      8.9351058    
      1300   302.93147     -895.71257      9.9850261     -885.72754      20365.309      3023.4645      8.9351058    
      1400   311.23025     -896.62428      10.258565     -886.36571      18877.136      3023.4645      8.9351058    
      1500   304.7921      -897.04458      10.046355     -886.99823      18249.668      3023.4645      8.9351058    
      1600   293.42702     -896.9722       9.6717469     -887.30046      18287.78       3023.4645      8.9351058    
      1700   298.02542     -896.83676      9.8233163     -887.01345      18663.043      3023.4645      8.9351058    
      1800   312.94447     -896.53723      10.315068     -886.22216      19211.79       3023.4645      8.9351058    
      1900   302.68526     -895.82973      9.9769107     -885.85282      20233.712      3023.4645      8.9351058    
      2000   321.84999     -896.69597      10.608606     -886.08736      18881.208      3023.4645      8.9351058    
      2100   286.42615     -896.57515      9.4409888     -887.13416      19104.111      3023.4645      8.9351058    
      2200   270.6441      -896.64922      8.9207912     -887.72843      18461.653      3023.4645      8.9351058    
      2300   271.18672     -896.2443       8.938677      -887.30562      19531.785      3023.4645      8.9351058    
      2400   291.72284     -896.47278      9.6155747     -886.85721      19262.297      3023.4645      8.9351058    
      2500   299.31585     -896.48111      9.8658505     -886.61526      19162.773      3023.4645      8.9351058    
      2600   298.84573     -896.22896      9.8503547     -886.37861      19862.283      3023.4645      8.9351058    
      2700   311.99703     -896.63775      10.283839     -886.35391      19190.123      3023.4645      8.9351058    
      2800   305.28473     -896.34928      10.062593     -886.28668      19500.657      3023.4645      8.9351058    
      2900   284.39258     -896.03747      9.3739596     -886.66351      19621.036      3023.4645      8.9351058    
      3000   304.1559      -897.0605       10.025385     -887.03512      18232.118      3023.4645      8.9351058    
      3100   277.33761     -896.36919      9.1414185     -887.22778      19128.754      3023.4645      8.9351058    
      3200   307.16278     -896.88077      10.124496     -886.75627      18754.652      3023.4645      8.9351058    
      3300   344.03221     -896.99088      11.339762     -885.65112      19005.08       3023.4645      8.9351058    
      3400   322.14364     -896.2677       10.618285     -885.64942      19949.883      3023.4645      8.9351058    
      3500   313.60286     -896.82013      10.33677      -886.48336      19074.155      3023.4645      8.9351058    
      3600   304.5817      -897.37041      10.03942      -887.33099      17737.378      3023.4645      8.9351058    
      3700   285.84953     -896.61108      9.4219826     -887.1891       18913.974      3023.4645      8.9351058    
      3800   300.13225     -896.57079      9.8927602     -886.67803      19112.342      3023.4645      8.9351058    
      3900   317.07503     -896.44923      10.451217     -885.99801      19473.128      3023.4645      8.9351058    
      4000   315.18823     -896.03042      10.389025     -885.64139      20249.757      3023.4645      8.9351058    
      4100   309.38265     -896.29501      10.197666     -886.09734      19749.496      3023.4645      8.9351058    
      4200   288.6072      -896.74844      9.5128792     -887.23556      18564.292      3023.4645      8.9351058    
      4300   269.04535     -896.32615      8.8680945     -887.45805      19126.6        3023.4645      8.9351058    
      4400   296.1937      -896.49915      9.7629405     -886.73621      19241.964      3023.4645      8.9351058    
      4500   297.14351     -895.60955      9.7942474     -885.8153       20620.021      3023.4645      8.9351058    
      4600   312.84418     -896.0752       10.311762     -885.76344      19954.472      3023.4645      8.9351058    
      4700   308.34732     -896.32017      10.16354      -886.15663      19504.41       3023.4645      8.9351058    
      4800   292.86637     -896.17849      9.6532671     -886.52522      19405.57       3023.4645      8.9351058    
      4900   295.72463     -896.43848      9.7474792     -886.691        19212.756      3023.4645      8.9351058    
      5000   291.26139     -896.71905      9.6003649     -887.11868      18647.883      3023.4645      8.9351058    
Loop time of 2.65961 on 1 procs for 5000 steps with 256 atoms

Performance: 162.430 ns/day, 0.148 hours/ns, 1879.972 timesteps/s, 481.273 katom-step/s
96.6% CPU use with 1 MPI tasks x 1 OpenMP threads

MPI task timing breakdown:
Section |  min time  |  avg time  |  max time  |%varavg| %total
---------------------------------------------------------------
Pair    | 2.5772     | 2.5772     | 2.5772     |   0.0 | 96.90
Neigh   | 0          | 0          | 0          |   0.0 |  0.00
Comm    | 0.044313   | 0.044313   | 0.044313   |   0.0 |  1.67
Output  | 0.0015575  | 0.0015575  | 0.0015575  |   0.0 |  0.06
Modify  | 0.025307   | 0.025307   | 0.025307   |   0.0 |  0.95
Other   |            | 0.01126    |            |       |  0.42

Nlocal:            256 ave         256 max         256 min
Histogram: 1 0 0 0 0 0 0 0 0 0
Nghost:           2201 ave        2201 max        2201 min
Histogram: 1 0 0 0 0 0 0 0 0 0
Neighs:          17920 ave       17920 max       17920 min
Histogram: 1 0 0 0 0 0 0 0 0 0

Total # of neighbors = 17920
Ave neighs/atom = 70
Neighbor list builds = 0
Dangerous builds = 0
Total wall time: 0:00:02
