ITEM: TIMESTEP
0
ITEM: NUMBER OF ATOMS
500
ITEM: BOX BOUNDS pp pp pp
0.0000000000000000e+00 8.3986442521492339e+00
0.0000000000000000e+00 8.3986442521492339e+00
0.0000000000000000e+00 8.3986442521492339e+00
ITEM: ATOMS id type xs ys zs
1 1 0 0 0
2 1 0.1 0.1 0
3 1 0.1 0 0.1
4 1 0 0.1 0.1
5 1 0.2 0 0
6 1 0.3 0.1 0
7 1 0.3 0 0.1
8 1 0.2 0.1 0.1
9 1 0.4 0 0
10 1 0.5 0.1 0
11 1 0.5 0 0.1
12 1 0.4 0.1 0.1
13 1 0.6 0 0
14 1 0.7 0.1 0
15 1 0.7 0 0.1
16 1 0.6 0.1 0.1
17 1 0.8 0 0
18 1 0.9 0.1 0
19 1 0.9 0 0.1
20 1 0.8 0.1 0.1
21 1 0 0.2 0
22 1 0.1 0.3 0
23 1 0.1 0.2 0.1
24 1 0 0.3 0.1
25 1 0.2 0.2 0
26 1 0.3 0.3 0
27 1 0.3 0.2 0.1
28 1 0.2 0.3 0.1
29 1 0.4 0.2 0
30 1 0.5 0.3 0
31 1 0.5 0.2 0.1
32 1 0.4 0.3 0.1
33 1 0.6 0.2 0
34 1 0.7 0.3 0
35 1 0.7 0.2 0.1
36 1 0.6 0.3 0.1
37 1 0.8 0.2 0
38 1 0.9 0.3 0
39 1 0.9 0.2 0.1
40 1 0.8 0.3 0.1
41 1 0 0.4 0
42 1 0.1 0.5 0
43 1 0.1 0.4 0.1
44 1 0 0.5 0.1
45 1 0.2 0.4 0
46 1 0.3 0.5 0
47 1 0.3 0.4 0.1
48 1 0.2 0.5 0.1
49 1 0.4 0.4 0
50 1 0.5 0.5 0
51 1 0.5 0.4 0.1
52 1 0.4 0.5 0.1
53 1 0.6 0.4 0
54 1 0.7 0.5 0
55 1 0.7 0.4 0.1
56 1 0.6 0.5 0.1
57 1 0.8 0.4 0
58 1 0.9 0.5 0
59 1 0.9 0.4 0.1
60 1 0.8 0.5 0.1
61 1 0 0.6 0
62 1 0.1 0.7 0
63 1 0.1 0.6 0.1
64 1 0 0.7 0.1
65 1 0.2 0.6 0
66 1 0.3 0.7 0
67 1 0.3 0.6 0.1
68 1 0.2 0.7 0.1
69 1 0.4 0.6 0
70 1 0.5 0.7 0
71 1 0.5 0.6 0.1
72 1 0.4 0.7 0.1
73 1 0.6 0.6 0
74 1 0.7 0.7 0
75 1 0.7 0.6 0.1
76 1 0.6 0.7 0.1
77 1 0.8 0.6 0
78 1 0.9 0.7 0
79 1 0.9 0.6 0.1
80 1 0.8 0.7 0.1
81 1 0 0.8 0
82 1 0.1 0.9 0
83 1 0.1 0.8 0.1
84 1 0 0.9 0.1
85 1 0.2 0.8 0
86 1 0.3 0.9 0
87 1 0.3 0.8 0.1
88 1 0.2 0.9 0.1
89 1 0.4 0.8 0
90 1 0.5 0.9 0
91 1 0.5 0.8 0.1
92 1 0.4 0.9 0.1
93 1 0.6 0.8 0
94 1 0.7 0.9 0
95 1 0.7 0.8 0.1
96 1 0.6 0.9 0.1
97 1 0.8 0.8 0
98 1 0.9 0.9 0
99 1 0.9 0.8 0.1
100 1 0.8 0.9 0.1
101 1 0 0 0.2
102 1 0.1 0.1 0.2
103 1 0.1 0 0.3
104 1 0 0.1 0.3
105 1 0.2 0 0.2
106 1 0.3 0.1 0.2
107 1 0.3 0 0.3
108 1 0.2 0.1 0.3
109 1 0.4 0 0.2
110 1 0.5 0.1 0.2
111 1 0.5 0 0.3
112 1 0.4 0.1 0.3
113 1 0.6 0 0.2
114 1 0.7 0.1 0.2
115 1 0.7 0 0.3
116 1 0.6 0.1 0.3
117 1 0.8 0 0.2
118 1 0.9 0.1 0.2
119 1 0.9 0 0.3
120 1 0.8 0.1 0.3
121 1 0 0.2 0.2
122 1 0.1 0.3 0.2
123 1 0.1 0.2 0.3
124 1 0 0.3 0.3
125 1 0.2 0.2 0.2
126 1 0.3 0.3 0.2
127 1 0.3 0.2 0.3
128 1 0.2 0.3 0.3
129 1 0.4 0.2 0.2
130 1 0.5 0.3 0.2
131 1 0.5 0.2 0.3
132 1 0.4 0.3 0.3
133 1 0.6 0.2 0.2
134 1 0.7 0.3 0.2
135 1 0.7 0.2 0.3
136 1 0.6 0.3 0.3
137 1 0.8 0.2 0.2
138 1 0.9 0.3 0.2
139 1 0.9 0.2 0.3
140 1 0.8 0.3 0.3
141 1 0 0.4 0.2
142 1 0.1 0.5 0.2
143 1 0.1 0.4 0.3
144 1 0 0.5 0.3
145 1 0.2 0.4 0.2
146 1 0.3 0.5 0.2
147 1 0.3 0.4 0.3
148 1 0.2 0.5 0.3
149 1 0.4 0.4 0.2
150 1 0.5 0.5 0.2
151 1 0.5 0.4 0.3
152 1 0.4 0.5 0.3
153 1 0.6 0.4 0.2
154 1 0.7 0.5 0.2
155 1 0.7 0.4 0.3
156 1 0.6 0.5 0.3
157 1 0.8 0.4 0.2
158 1 0.9 0.5 0.2
159 1 0.9 0.4 0.3
160 1 0.8 0.5 0.3
161 1 0 0.6 0.2
162 1 0.1 0.7 0.2
163 1 0.1 0.6 0.3
164 1 0 0.7 0.3
165 1 0.2 0.6 0.2
166 1 0.3 0.7 0.2
167 1 0.3 0.6 0.3
168 1 0.2 0.7 0.3
169 1 0.4 0.6 0.2
170 1 0.5 0.7 0.2
171 1 0.5 0.6 0.3
172 1 0.4 0.7 0.3
173 1 0.6 0.6 0.2
174 1 0.7 0.7 0.2
175 1 0.7 0.6 0.3
176 1 0.6 0.7 0.3
177 1 0.8 0.6 0.2
178 1 0.9 0.7 0.2
179 1 0.9 0.6 0.3
180 1 0.8 0.7 0.3
181 1 0 0.8 0.2
182 1 0.1 0.9 0.2
183 1 0.1 0.8 0.3
184 1 0 0.9 0.3
185 1 0.2 0.8 0.2
186 1 0.3 0.9 0.2
187 1 0.3 0.8 0.3
188 1 0.2 0.9 0.3
189 1 0.4 0.8 0.2
190 1 0.5 0.9 0.2
191 1 0.5 0.8 0.3
192 1 0.4 0.9 0.3
193 1 0.6 0.8 0.2
194 1 0.7 0.9 0.2
195 1 0.7 0.8 0.3
196 1 0.6 0.9 0.3
197 1 0.8 0.8 0.2
198 1 0.9 0.9 0.2
199 1 0.9 0.8 0.3
200 1 0.8 0.9 0.3
201 1 0 0 0.4
202 1 0.1 0.1 0.4
203 1 0.1 0 0.5
204 1 0 0.1 0.5
205 1 0.2 0 0.4
206 1 0.3 0.1 0.4
207 1 0.3 0 0.5
208 1 0.2 0.1 0.5
209 1 0.4 0 0.4
210 1 0.5 0.1 0.4
211 1 0.5 0 0.5
212 1 0.4 0.1 0.5
213 1 0.6 0 0.4
214 1 0.7 0.1 0.4
215 1 0.7 0 0.5
216 1 0.6 0.1 0.5
217 1 0.8 0 0.4
218 1 0.9 0.1 0.4
219 1 0.9 0 0.5
220 1 0.8 0.1 0.5
221 1 0 0.2 0.4
222 1 0.1 0.3 0.4
223 1 0.1 0.2 0.5
224 1 0 0.3 0.5
225 1 0.2 0.2 0.4
226 1 0.3 0.3 0.4
227 1 0.3 0.2 0.5
228 1 0.2 0.3 0.5
229 1 0.4 0.2 0.4
230 1 0.5 0.3 0.4
231 1 0.5 0.2 0.5
232 1 0.4 0.3 0.5
233 1 0.6 0.2 0.4
234 1 0.7 0.3 0.4
235 1 0.7 0.2 0.5
236 1 0.6 0.3 0.5
237 1 0.8 0.2 0.4
238 1 0.9 0.3 0.4
239 1 0.9 0.2 0.5
240 1 0.8 0.3 0.5
241 1 0 0.4 0.4
242 1 0.1 0.5 0.4
243 1 0.1 0.4 0.5
244 1 0 0.5 0.5
245 1 0.2 0.4 0.4
246 1 0.3 0.5 0.4
247 1 0.3 0.4 0.5
248 1 0.2 0.5 0.5
249 1 0.4 0.4 0.4
250 1 0.5 0.5 0.4
251 1 0.5 0.4 0.5
252 1 0.4 0.5 0.5
253 1 0.6 0.4 0.4
254 1 0.7 0.5 0.4
255 1 0.7 0.4 0.5
256 1 0.6 0.5 0.5
257 1 0.8 0.4 0.4
258 1 0.9 0.5 0.4
259 1 0.9 0.4 0.5
260 1 0.8 0.5 0.5
261 1 0 0.6 0.4
262 1 0.1 0.7 0.4
263 1 0.1 0.6 0.5
264 1 0 0.7 0.5
265 1 0.2 0.6 0.4
266 1 0.3 0.7 0.4
267 1 0.3 0.6 0.5
268 1 0.2 0.7 0.5
269 1 0.4 0.6 0.4
270 1 0.5 0.7 0.4
271 1 0.5 0.6 0.5
272 1 0.4 0.7 0.5
273 1 0.6 0.6 0.4
274 1 0.7 0.7 0.4
275 1 0.7 0.6 0.5
276 1 0.6 0.7 0.5
277 1 0.8 0.6 0.4
278 1 0.9 0.7 0.4
279 1 0.9 0.6 0.5
280 1 0.8 0.7 0.5
281 1 0 0.8 0.4
282 1 0.1 0.9 0.4
283 1 0.1 0.8 0.5
284 1 0 0.9 0.5
285 1 0.2 0.8 0.4
286 1 0.3 0.9 0.4
287 1 0.3 0.8 0.5
288 1 0.2 0.9 0.5
289 1 0.4 0.8 0.4
290 1 0.5 0.9 0.4
291 1 0.5 0.8 0.5
292 1 0.4 0.9 0.5
293 1 0.6 0.8 0.4
294 1 0.7 0.9 0.4
295 1 0.7 0.8 0.5
296 1 0.6 0.9 0.5
297 1 0.8 0.8 0.4
298 1 0.9 0.9 0.4
299 1 0.9 0.8 0.5
300 1 0.8 0.9 0.5
301 1 0 0 0.6
302 1 0.1 0.1 0.6
303 1 0.1 0 0.7
304 1 0 0.1 0.7
305 1 0.2 0 0.6
306 1 0.3 0.1 0.6
307 1 0.3 0 0.7
308 1 0.2 0.1 0.7
309 1 0.4 0 0.6
310 1 0.5 0.1 0.6
311 1 0.5 0 0.7
312 1 0.4 0.1 0.7
313 1 0.6 0 0.6
314 1 0.7 0.1 0.6
315 1 0.7 0 0.7
316 1 0.6 0.1 0.7
317 1 0.8 0 0.6
318 1 0.9 0.1 0.6
319 1 0.9 0 0.7
320 1 0.8 0.1 0.7
321 1 0 0.2 0.6
322 1 0.1 0.3 0.6
323 1 0.1 0.2 0.7
324 1 0 0.3 0.7
325 1 0.2 0.2 0.6
326 1 0.3 0.3 0.6
327 1 0.3 0.2 0.7
328 1 0.2 0.3 0.7
329 1 0.4 0.2 0.6
330 1 0.5 0.3 0.6
331 1 0.5 0.2 0.7
332 1 0.4 0.3 0.7
333 1 0.6 0.2 0.6
334 1 0.7 0.3 0.6
335 1 0.7 0.2 0.7
336 1 0.6 0.3 0.7
337 1 0.8 0.2 0.6
338 1 0.9 0.3 0.6
339 1 0.9 0.2 0.7
340 1 0.8 0.3 0.7
341 1 0 0.4 0.6
342 1 0.1 0.5 0.6
343 1 0.1 0.4 0.7
344 1 0 0.5 0.7
345 1 0.2 0.4 0.6
346 1 0.3 0.5 0.6
347 1 0.3 0.4 0.7
348 1 0.2 0.5 0.7
349 1 0.4 0.4 0.6
350 1 0.5 0.5 0.6
351 1 0.5 0.4 0.7
352 1 0.4 0.5 0.7
353 1 0.6 0.4 0.6
354 1 0.7 0.5 0.6
355 1 0.7 0.4 0.7
356 1 0.6 0.5 0.7
357 1 0.8 0.4 0.6
358 1 0.9 0.5 0.6
359 1 0.9 0.4 0.7
360 1 0.8 0.5 0.7
361 1 0 0.6 0.6
362 1 0.1 0.7 0.6
363 1 0.1 0.6 0.7
364 1 0 0.7 0.7
365 1 0.2 0.6 0.6
366 1 0.3 0.7 0.6
367 1 0.3 0.6 0.7
368 1 0.2 0.7 0.7
369 1 0.4 0.6 0.6
370 1 0.5 0.7 0.6
371 1 0.5 0.6 0.7
372 1 0.4 0.7 0.7
373 1 0.6 0.6 0.6
374 1 0.7 0.7 0.6
375 1 0.7 0.6 0.7
376 1 0.6 0.7 0.7
377 1 0.8 0.6 0.6
378 1 0.9 0.7 0.6
379 1 0.9 0.6 0.7
380 1 0.8 0.7 0.7
381 1 0 0.8 0.6
382 1 0.1 0.9 0.6
383 1 0.1 0.8 0.7
384 1 0 0.9 0.7
385 1 0.2 0.8 0.6
386 1 0.3 0.9 0.6
387 1 0.3 0.8 0.7
388 1 0.2 0.9 0.7
389 1 0.4 0.8 0.6
390 1 0.5 0.9 0.6
391 1 0.5 0.8 0.7
392 1 0.4 0.9 0.7
393 1 0.6 0.8 0.6
394 1 0.7 0.9 0.6
395 1 0.7 0.8 0.7
396 1 0.6 0.9 0.7
397 1 0.8 0.8 0.6
398 1 0.9 0.9 0.6
399 1 0.9 0.8 0.7
400 1 0.8 0.9 0.7
401 1 0 0 0.8
402 1 0.1 0.1 0.8
403 1 0.1 0 0.9
404 1 0 0.1 0.9
405 1 0.2 0 0.8
406 1 0.3 0.1 0.8
407 1 0.3 0 0.9
408 1 0.2 0.1 0.9
409 1 0.4 0 0.8
410 1 0.5 0.1 0.8
411 1 0.5 0 0.9
412 1 0.4 0.1 0.9
413 1 0.6 0 0.8
414 1 0.7 0.1 0.8
415 1 0.7 0 0.9
416 1 0.6 0.1 0.9
417 1 0.8 0 0.8
418 1 0.9 0.1 0.8
419 1 0.9 0 0.9
420 1 0.8 0.1 0.9
421 1 0 0.2 0.8
422 1 0.1 0.3 0.8
423 1 0.1 0.2 0.9
424 1 0 0.3 0.9
425 1 0.2 0.2 0.8
426 1 0.3 0.3 0.8
427 1 0.3 0.2 0.9
428 1 0.2 0.3 0.9
429 1 0.4 0.2 0.8
430 1 0.5 0.3 0.8
431 1 0.5 0.2 0.9
432 1 0.4 0.3 0.9
433 1 0.6 0.2 0.8
434 1 0.7 0.3 0.8
435 1 0.7 0.2 0.9
436 1 0.6 0.3 0.9
437 1 0.8 0.2 0.8
438 1 0.9 0.3 0.8
439 1 0.9 0.2 0.9
440 1 0.8 0.3 0.9
441 1 0 0.4 0.8
442 1 0.1 0.5 0.8
443 1 0.1 0.4 0.9
444 1 0 0.5 0.9
445 1 0.2 0.4 0.8
446 1 0.3 0.5 0.8
447 1 0.3 0.4 0.9
448 1 0.2 0.5 0.9
449 1 0.4 0.4 0.8
450 1 0.5 0.5 0.8
451 1 0.5 0.4 0.9
452 1 0.4 0.5 0.9
453 1 0.6 0.4 0.8
454 1 0.7 0.5 0.8
455 1 0.7 0.4 0.9
456 1 0.6 0.5 0.9
457 1 0.8 0.4 0.8
458 1 0.9 0.5 0.8
459 1 0.9 0.4 0.9
460 1 0.8 0.5 0.9
461 1 0 0.6 0.8
462 1 0.1 0.7 0.8
463 1 0.1 0.6 0.9
464 1 0 0.7 0.9
465 1 0.2 0.6 0.8
466 1 0.3 0.7 0.8
467 1 0.3 0.6 0.9
468 1 0.2 0.7 0.9
469 1 0.4 0.6 0.8
470 1 0.5 0.7 0.8
471 1 0.5 0.6 0.9
472 1 0.4 0.7 0.9
473 1 0.6 0.6 0.8
474 1 0.7 0.7 0.8
475 1 0.7 0.6 0.9
476 1 0.6 0.7 0.9
477 1 0.8 0.6 0.8
478 1 0.9 0.7 0.8
479 1 0.9 0.6 0.9
480 1 0.8 0.7 0.9
481 1 0 0.8 0.8
482 1 0.1 0.9 0.8
483 1 0.1 0.8 0.9
484 1 0 0.9 0.9
485 1 0.2 0.8 0.8
486 1 0.3 0.9 0.8
487 1 0.3 0.8 0.9
488 1 0.2 0.9 0.9
489 1 0.4 0.8 0.8
490 1 0.5 0.9 0.8
491 1 0.5 0.8 0.9
492 1 0.4 0.9 0.9
493 1 0.6 0.8 0.8
494 1 0.7 0.9 0.8
495 1 0.7 0.8 0.9
496 1 0.6 0.9 0.9
497 1 0.8 0.8 0.8
498 1 0.9 0.9 0.8
499 1 0.9 0.8 0.9
500 1 0.8 0.9 0.9
ITEM: TIMESTEP
100
ITEM: NUMBER OF ATOMS
500
ITEM: BOX BOUNDS pp pp pp
0.0000000000000000e+00 8.3986442521492339e+00
0.0000000000000000e+00 8.3986442521492339e+00
0.0000000000000000e+00 8.3986442521492339e+00
ITEM: ATOMS id type xs ys zs
1 1 0.991322 0.0205345 0.980878
2 1 0.0861677 0.0894503 0.0120251
3 1 0.0862298 0.034416 0.124184
4 1 0.984699 0.100318 0.0936853
5 1 0.189761 0.00462276 0.00962673
6 1 0.278439 0.0945439 0.999852
7 1 0.29181 0.0029002 0.0939678
8 1 0.196551 0.0816749 0.110234
9 1 0.378756 0.995875 0.995876
10 1 0.491941 0.118196 0.979361
11 1 0.475505 0.983473 0.0838673
12 1 0.399987 0.0979087 0.0878047
13 1 0.592292 0.993345 0.976547
14 1 0.697779 0.0849357 0.991962
15 1 0.670936 0.994025 0.0980042
16 1 0.581971 0.087802 0.0763954
17 1 0.816686 0.959064 0.988705
18 1 0.894545 0.0935044 0.997659
19 1 0.901443 0.995482 0.0997552
20 1 0.77443 0.0815689 0.0941353
21 1 0.0160439 0.217625 0.991824
22 1 0.109582 0.306232 9.42462e-05
23 1 0.105027 0.176143 0.10111
24 1 0.0125898 0.293737 0.0941045
25 1 0.193476 0.186852 0.00654792
26 1 0.269714 0.301035 0.990603
27 1 0.29538 0.20331 0.103738
28 1 0.187763 0.284609 0.0858756
29 1 0.380925 0.204798 0.98758
30 1 0.487456 0.295632 0.983054
31 1 0.506175 0.210132 0.0796668
32 1 0.404661 0.286543 0.0992518
33 1 0.619004 0.182282 0.998448
34 1 0.700229 0.299103 0.97524
35 1 0.699263 0.202 0.0892347
36 1 0.608935 0.318746 0.0852678
37 1 0.796692 0.204276 0.00873358
38 1 0.894973 0.293716 0.999225
39 1 0.912882 0.202245 0.0924755
40 1 0.808019 0.320678 0.0979156
41 1 0.984237 0.400241 0.994785
42 1 0.106561 0.520737 0.0133219
43 1 0.0892861 0.40192 0.0852231
44 1 0.000207356 0.516647 0.0881382
45 1 0.19981 0.408182 0.0320935
46 1 0.290102 0.495337 0.0173922
47 1 0.2925 0.378415 0.102934
48 1 0.204647 0.515333 0.107969
49 1 0.392838 0.40306 0.0101422
50 1 0.489567 0.486234 0.979448
51 1 0.494372 0.381078 0.116989
52 1 0.386395 0.486148 0.112704
53 1 0.608088 0.391433 0.963978
54 1 0.709518 0.527599 0.990446
55 1 0.710249 0.419719 0.0750672
56 1 0.599973 0.462981 0.0749524
57 1 0.805969 0.38553 0.988962
58 1 0.899391 0.503438 0.977696
59 1 0.919731 0.388103 0.107365
60 1 0.827977 0.503218 0.0959198
61 1 0.991868 0.631381 0.997111
62 1 0.100759 0.720219 0.998334
63 1 0.110741 0.619196 0.111562
64 1 0.999161 0.711796 0.124976
65 1 0.23792 0.598614 0.988766
66 1 0.303145 0.69904 0.0149036
67 1 0.296567 0.595975 0.110086
68 1 0.200795 0.70472 0.0775114
69 1 0.387873 0.576746 0.994571
70 1 0.511788 0.705445 0.0278462
71 1 0.488802 0.559798 0.10144
72 1 0.396874 0.689016 0.108224
73 1 0.585922 0.602771 0.0250692
74 1 0.692891 0.710031 0.0184773
75 1 0.716153 0.595821 0.0884476
76 1 0.607866 0.695765 0.113059
77 1 0.81677 0.606393 0.987918
78 1 0.915583 0.726938 0.0402307
79 1 0.910008 0.615037 0.100922
80 1 0.816171 0.706488 0.108697
81 1 0.0198826 0.823408 0.992694
82 1 0.0823688 0.942342 0.0213326
83 1 0.10211 0.821485 0.107815
84 1 0.000624533 0.891811 0.10348
85 1 0.223839 0.787375 0.988194
86 1 0.295797 0.906321 8.39067e-05
87 1 0.268601 0.800508 0.104802
88 1 0.204637 0.910001 0.101801
89 1 0.40135 0.812253 0.0175148
90 1 0.494819 0.906764 0.98712
91 1 0.483261 0.788145 0.120924
92 1 0.374247 0.917146 0.112907
93 1 0.597952 0.79582 0.0190705
94 1 0.693698 0.88876 0.995146
95 1 0.718414 0.793885 0.107678
96 1 0.573448 0.903335 0.0984706
97 1 0.806651 0.805008 0.0123786
98 1 0.921272 0.897756 0.984962
99 1 0.892046 0.836405 0.108722
100 1 0.793033 0.900596 0.0979899
101 1 0.996044 0.0172761 0.215312
102 1 0.119145 0.109274 0.216115
103 1 0.0894899 0.013521 0.30554
104 1 0.00877223 0.122495 0.303051
105 1 0.19655 0.0113276 0.209587
106 1 0.300442 0.0912616 0.197893
107 1 0.321137 0.019902 0.310156
108 1 0.210062 0.106147 0.306813
109 1 0.410839 0.0230364 0.190132
110 1 0.512816 0.119576 0.184209
111 1 0.500982 0.998808 0.288291
112 1 0.427036 0.0982624 0.293444
113 1 0.597898 0.013539 0.204361
114 1 0.694728 0.106737 0.206451
115 1 0.706232 0.998326 0.283013
116 1 0.587094 0.106294 0.29437
117 1 0.818881 0.0267202 0.210132
118 1 0.907137 0.123474 0.212964
119 1 0.915559 0.0166771 0.320291
120 1 0.799771 0.102493 0.304766
121 1 0.0291369 0.196456 0.195772
122 1 0.105269 0.310831 0.184724
123 1 0.124552 0.205093 0.29884
124 1 0.997755 0.239819 0.319744
125 1 0.232614 0.194466 0.212934
126 1 0.286074 0.317986 0.213513
127 1 0.314156 0.167988 0.314618
128 1 0.179669 0.316842 0.288128
129 1 0.397101 0.182718 0.191452
130 1 0.49594 0.279047 0.206599
131 1 0.509951 0.191655 0.287151
132 1 0.373421 0.277718 0.297205
133 1 0.602065 0.21702 0.178873
134 1 0.708402 0.320639 0.195418
135 1 0.705645 0.206816 0.284885
136 1 0.604376 0.306831 0.28032
137 1 0.799834 0.192218 0.162011
138 1 0.92058 0.29103 0.186295
139 1 0.850461 0.212404 0.292384
140 1 0.775179 0.330738 0.295978
141 1 0.994309 0.399853 0.208154
142 1 0.0897971 0.491745 0.174365
143 1 0.0736985 0.382802 0.299977
144 1 0.0101313 0.504173 0.282548
145 1 0.18732 0.42403 0.212323
146 1 0.290605 0.503221 0.202345
147 1 0.319626 0.407054 0.298869
148 1 0.182675 0.502589 0.315676
149 1 0.403346 0.376938 0.199979
150 1 0.473019 0.479928 0.219977
151 1 0.48187 0.390158 0.296494
152 1 0.391256 0.495985 0.347652
153 1 0.606574 0.407228 0.193521
154 1 0.719143 0.502316 0.17366
155 1 0.712403 0.449869 0.291203
156 1 0.587762 0.504919 0.287487
157 1 0.813573 0.428475 0.209101
158 1 0.922932 0.505761 0.192587
159 1 0.896403 0.362097 0.302369
160 1 0.821509 0.524002 0.307592
161 1 0.998721 0.606425 0.204917
162 1 0.101143 0.722265 0.200458
163 1 0.081312 0.60632 0.302369
164 1 0.00206317 0.709019 0.286692
165 1 0.19543 0.59071 0.20591
166 1 0.274323 0.703424 0.212542
167 1 0.28682 0.589099 0.301356
168 1 0.19221 0.682959 0.317511
169 1 0.411945 0.594712 0.196581
170 1 0.51724 0.673244 0.209974
171 1 0.48866 0.606123 0.311553
172 1 0.38011 0.710663 0.295534
173 1 0.611783 0.585241 0.167834
174 1 0.713531 0.693689 0.190542
175 1 0.690965 0.587254 0.275467
176 1 0.587807 0.70254 0.308199
177 1 0.800894 0.592124 0.189017
178 1 0.892341 0.70138 0.214619
179 1 0.925697 0.605898 0.300594
180 1 0.807401 0.654964 0.292181
181 1 0.977813 0.819507 0.211574
182 1 0.0873159 0.922358 0.205539
183 1 0.0908851 0.824802 0.298155
184 1 0.00120548 0.910116 0.301598
185 1 0.197799 0.819765 0.213189
186 1 0.292177 0.923655 0.207708
187 1 0.295207 0.809001 0.302548
188 1 0.188524 0.917785 0.312112
189 1 0.356333 0.81828 0.194723
190 1 0.480149 0.8969 0.195965
191 1 0.483611 0.787248 0.262858
192 1 0.386944 0.912143 0.300402
193 1 0.618085 0.775949 0.207321
194 1 0.693157 0.887623 0.208447
195 1 0.703693 0.789941 0.315997
196 1 0.590428 0.894534 0.267506
197 1 0.799657 0.800283 0.220741
198 1 0.889451 0.931666 0.219878
199 1 0.88709 0.8209 0.300412
200 1 0.777608 0.895971 0.32904
201 1 0.998878 0.012565 0.408702
202 1 0.128842 0.133876 0.411927
203 1 0.104088 0.98953 0.51446
204 1 0.999198 0.0754941 0.511418
205 1 0.20699 0.0255897 0.404564
206 1 0.304067 0.0937438 0.424604
207 1 0.324729 0.986013 0.511558
208 1 0.208433 0.072145 0.52077
209 1 0.414849 0.00599476 0.394529
210 1 0.511773 0.0912092 0.402384
211 1 0.50624 0.996334 0.491157
212 1 0.408893 0.109364 0.523409
213 1 0.588778 0.996396 0.377926
214 1 0.694678 0.0762044 0.396272
215 1 0.697613 0.989867 0.494099
216 1 0.605031 0.0830538 0.506756
217 1 0.809433 0.00576743 0.416178
218 1 0.885843 0.104078 0.412275
219 1 0.906072 0.995095 0.503746
220 1 0.793208 0.0910397 0.508995
221 1 0.995079 0.165789 0.41835
222 1 0.0868892 0.279136 0.400758
223 1 0.0925347 0.180366 0.542574
224 1 0.013306 0.277639 0.509066
225 1 0.217419 0.213379 0.383336
226 1 0.27257 0.321204 0.383466
227 1 0.273305 0.173979 0.514116
228 1 0.162985 0.302112 0.503507
229 1 0.40349 0.189648 0.37981
230 1 0.475353 0.289271 0.398959
231 1 0.50411 0.220074 0.517118
232 1 0.351237 0.27146 0.475288
233 1 0.577072 0.219962 0.399128
234 1 0.689604 0.280785 0.385876
235 1 0.695476 0.174799 0.470796
236 1 0.620466 0.281775 0.507875
237 1 0.812793 0.206515 0.415067
238 1 0.904352 0.287861 0.416961
239 1 0.892421 0.194841 0.510278
240 1 0.780088 0.290611 0.507327
241 1 0.00195805 0.376784 0.396621
242 1 0.0561019 0.516148 0.407356
243 1 0.0806134 0.396679 0.503364
244 1 0.975835 0.518891 0.522237
245 1 0.159491 0.399821 0.396372
246 1 0.277061 0.487485 0.413668
247 1 0.258676 0.399144 0.504287
248 1 0.169563 0.492556 0.514071
249 1 0.410081 0.386617 0.432066
250 1 0.51632 0.48889 0.403174
251 1 0.523048 0.411389 0.505905
252 1 0.417552 0.504601 0.496222
253 1 0.63331 0.401307 0.3638
254 1 0.70276 0.534948 0.40265
255 1 0.697458 0.385835 0.503046
256 1 0.598669 0.524065 0.509984
257 1 0.819682 0.411969 0.403973
258 1 0.926823 0.505076 0.380321
259 1 0.932181 0.408134 0.511753
260 1 0.776279 0.510573 0.511136
261 1 0.987293 0.619241 0.427903
262 1 0.0838138 0.713701 0.384231
263 1 0.0845946 0.605489 0.510715
264 1 0.0241325 0.724607 0.499803
265 1 0.176578 0.599164 0.426603
266 1 0.297061 0.70946 0.392556
267 1 0.292943 0.617918 0.475136
268 1 0.203227 0.713241 0.488264
269 1 0.391446 0.612575 0.401108
270 1 0.480561 0.716757 0.371656
271 1 0.496374 0.602063 0.491494
272 1 0.404186 0.709879 0.491644
273 1 0.57752 0.606085 0.400178
274 1 0.697411 0.683438 0.393943
275 1 0.691262 0.617392 0.511427
276 1 0.588447 0.717119 0.451861
277 1 0.836314 0.603092 0.430434
278 1 0.912136 0.711004 0.411311
279 1 0.905603 0.653361 0.532628
280 1 0.759863 0.720474 0.505061
281 1 0.99115 0.814118 0.383374
282 1 0.0918704 0.922981 0.387528
283 1 0.117925 0.822119 0.490282
284 1 0.00740747 0.885435 0.497572
285 1 0.181638 0.798475 0.384093
286 1 0.298676 0.928542 0.401758
287 1 0.290654 0.802549 0.487124
288 1 0.215122 0.909635 0.499868
289 1 0.376934 0.824666 0.390647
290 1 0.485114 0.903192 0.380228
291 1 0.49264 0.796958 0.471058
292 1 0.41042 0.896541 0.493683
293 1 0.57039 0.810799 0.372918
294 1 0.673288 0.908664 0.395191
295 1 0.685598 0.812834 0.465068
296 1 0.582472 0.887766 0.480329
297 1 0.80882 0.767403 0.388186
298 1 0.895524 0.906138 0.404126
299 1 0.88976 0.809001 0.496552
300 1 0.795825 0.892198 0.480067
301 1 0.0193526 0.986978 0.604808
302 1 0.116269 0.0855512 0.61263
303 1 0.104087 0.997952 0.711903
304 1 0.0158398 0.0972241 0.722441
305 1 0.228664 0.980797 0.611619
306 1 0.307282 0.0845467 0.612386
307 1 0.317303 0.971696 0.704095
308 1 0.219905 0.0691889 0.701624
309 1 0.412055 0.985799 0.603646
310 1 0.505464 0.106408 0.614842
311 1 0.511701 0.00399406 0.690365
312 1 0.41255 0.0852624 0.708294
313 1 0.592632 0.99093 0.600781
314 1 0.695758 0.105972 0.588292
315 1 0.695476 0.975859 0.712157
316 1 0.624637 0.084512 0.712027
317 1 0.790139 0.961084 0.596428
318 1 0.895697 0.0853354 0.581012
319 1 0.909246 0.989749 0.667125
320 1 0.788708 0.0689391 0.670419
321 1 0.99502 0.188005 0.607733
322 1 0.107874 0.282492 0.609759
323 1 0.10543 0.195469 0.702363
324 1 0.00960377 0.292579 0.71049
325 1 0.19898 0.19854 0.612596
326 1 0.270538 0.296233 0.639469
327 1 0.290112 0.183353 0.698629
328 1 0.168475 0.309879 0.718068
329 1 0.394362 0.222551 0.579878
330 1 0.522604 0.337702 0.600708
331 1 0.482907 0.214334 0.706203
332 1 0.401043 0.314204 0.686939
333 1 0.614089 0.194836 0.604528
334 1 0.692406 0.306781 0.596217
335 1 0.721127 0.16814 0.710939
336 1 0.613981 0.289636 0.693701
337 1 0.798378 0.186112 0.601853
338 1 0.891534 0.311989 0.580439
339 1 0.887053 0.215271 0.6927
340 1 0.790675 0.283377 0.724735
341 1 0.00450905 0.398511 0.616814
342 1 0.0818009 0.506798 0.610379
343 1 0.0878005 0.410627 0.712691
344 1 0.990483 0.503821 0.705121
345 1 0.170266 0.393388 0.611142
346 1 0.296616 0.517235 0.56197
347 1 0.305012 0.406222 0.699799
348 1 0.184475 0.493318 0.682255
349 1 0.399146 0.375987 0.575781
350 1 0.502839 0.488799 0.600051
351 1 0.51935 0.400702 0.720267
352 1 0.420279 0.520571 0.691078
353 1 0.62915 0.409035 0.611465
354 1 0.700899 0.523894 0.611718
355 1 0.710596 0.398681 0.728332
356 1 0.604646 0.498161 0.707799
357 1 0.785456 0.392089 0.620664
358 1 0.893258 0.478372 0.62001
359 1 0.89697 0.37815 0.710064
360 1 0.799356 0.500921 0.715478
361 1 0.000872123 0.604012 0.609534
362 1 0.116276 0.709956 0.613246
363 1 0.0973052 0.605111 0.686435
364 1 0.0133159 0.718996 0.698671
365 1 0.196461 0.604035 0.597705
366 1 0.314651 0.717154 0.587587
367 1 0.299356 0.592811 0.670119
368 1 0.251779 0.724154 0.704607
369 1 0.39634 0.603973 0.580834
370 1 0.5017 0.708822 0.574348
371 1 0.489232 0.622288 0.693911
372 1 0.377514 0.705569 0.700264
373 1 0.600525 0.594229 0.624661
374 1 0.698349 0.685783 0.609745
375 1 0.718207 0.603544 0.705974
376 1 0.601404 0.706852 0.694338
377 1 0.797976 0.614364 0.594277
378 1 0.882726 0.735246 0.620005
379 1 0.909321 0.597457 0.713759
380 1 0.808382 0.697103 0.711246
381 1 0.997104 0.795841 0.606884
382 1 0.120176 0.910919 0.603397
383 1 0.106291 0.816875 0.697655
384 1 0.999933 0.925369 0.739616
385 1 0.217676 0.808328 0.591349
386 1 0.316835 0.901677 0.589928
387 1 0.32679 0.84227 0.698607
388 1 0.210743 0.892276 0.692945
389 1 0.405414 0.801568 0.597159
390 1 0.498171 0.87149 0.566966
391 1 0.497459 0.784688 0.690869
392 1 0.442915 0.90346 0.688355
393 1 0.600491 0.783837 0.599342
394 1 0.687528 0.891414 0.568712
395 1 0.706158 0.783833 0.702168
396 1 0.580751 0.890283 0.685113
397 1 0.786333 0.815045 0.601705
398 1 0.913851 0.89018 0.584417
399 1 0.914349 0.809886 0.709548
400 1 0.796222 0.877816 0.711037
401 1 0.98818 0.0197024 0.822384
402 1 0.114907 0.107785 0.797066
403 1 0.092453 0.0114465 0.889604
404 1 0.0141966 0.112854 0.897672
405 1 0.208668 0.970173 0.789391
406 1 0.313091 0.0794807 0.795914
407 1 0.279525 0.993203 0.913688
408 1 0.206216 0.0976429 0.890384
409 1 0.434232 0.985712 0.796787
410 1 0.48962 0.0910532 0.814612
411 1 0.474329 0.00731369 0.90972
412 1 0.379703 0.100225 0.90226
413 1 0.56742 0.969966 0.809564
414 1 0.701731 0.0741517 0.805864
415 1 0.720644 0.995747 0.905866
416 1 0.597124 0.0727733 0.887204
417 1 0.854727 0.0310409 0.775808
418 1 0.927453 0.150959 0.801397
419 1 0.884574 0.999097 0.899581
420 1 0.798936 0.0972662 0.90563
421 1 0.0455566 0.206434 0.817747
422 1 0.0971006 0.319974 0.816609
423 1 0.135413 0.203761 0.904713
424 1 0.995534 0.298514 0.894926
425 1 0.200667 0.206312 0.796956
426 1 0.289703 0.292368 0.763946
427 1 0.292033 0.192499 0.889408
428 1 0.205708 0.328552 0.878556
429 1 0.378399 0.187575 0.784192
430 1 0.517331 0.291436 0.796236
431 1 0.472832 0.219997 0.887904
432 1 0.359505 0.30446 0.876864
433 1 0.608869 0.174247 0.804189
434 1 0.690827 0.284816 0.810281
435 1 0.695469 0.185788 0.897309
436 1 0.595026 0.285995 0.898271
437 1 0.802461 0.162602 0.804448
438 1 0.913536 0.275647 0.810291
439 1 0.900682 0.201837 0.914336
440 1 0.803581 0.276373 0.879139
441 1 0.99807 0.403047 0.818343
442 1 0.123511 0.50895 0.800503
443 1 0.114494 0.401207 0.916695
444 1 0.0228304 0.517023 0.916851
445 1 0.222439 0.426207 0.791639
446 1 0.319132 0.51072 0.774552
447 1 0.292553 0.41363 0.899096
448 1 0.199901 0.489533 0.916664
449 1 0.406618 0.397161 0.785901
450 1 0.484709 0.499437 0.795018
451 1 0.508118 0.377592 0.887812
452 1 0.39748 0.473768 0.890165
453 1 0.617636 0.394567 0.82098
454 1 0.700728 0.49779 0.799993
455 1 0.713442 0.398009 0.888072
456 1 0.583244 0.509955 0.887489
457 1 0.820646 0.394573 0.803321
458 1 0.894781 0.484839 0.826844
459 1 0.900415 0.385631 0.902272
460 1 0.782517 0.493967 0.905524
461 1 0.0280317 0.617176 0.787346
462 1 0.132971 0.718213 0.794272
463 1 0.144446 0.600741 0.887543
464 1 0.0267671 0.701489 0.890388
465 1 0.191868 0.604307 0.750678
466 1 0.29056 0.671033 0.812872
467 1 0.301065 0.568048 0.88271
468 1 0.214728 0.703794 0.902956
469 1 0.401136 0.601723 0.806517
470 1 0.505354 0.699804 0.790299
471 1 0.498605 0.608822 0.886874
472 1 0.38479 0.667371 0.916623
473 1 0.601288 0.614463 0.786715
474 1 0.704803 0.693431 0.791048
475 1 0.709011 0.602913 0.887702
476 1 0.600206 0.700763 0.929335
477 1 0.817686 0.584063 0.814783
478 1 0.921828 0.70308 0.789127
479 1 0.918583 0.600526 0.894821
480 1 0.80276 0.686181 0.890064
481 1 0.005904 0.812717 0.801343
482 1 0.111542 0.890325 0.801065
483 1 0.120645 0.79467 0.88986
484 1 0.0280525 0.909463 0.894736
485 1 0.228651 0.802377 0.805519
486 1 0.317501 0.89545 0.817952
487 1 0.312265 0.793651 0.907303
488 1 0.203505 0.894652 0.908058
489 1 0.386433 0.766686 0.806616
490 1 0.486447 0.86666 0.796874
491 1 0.468035 0.765372 0.914646
492 1 0.39899 0.899071 0.916147
493 1 0.60288 0.795996 0.799039
494 1 0.704765 0.875131 0.800452
495 1 0.699696 0.786504 0.909731
496 1 0.587346 0.877968 0.894169
497 1 0.794153 0.781693 0.793077
498 1 0.881716 0.905152 0.807248
499 1 0.909374 0.802588 0.903679
500 1 0.796554 0.884848 0.895142
ITEM: TIMESTEP
200
ITEM: NUMBER OF ATOMS
500
ITEM: BOX BOUNDS pp pp pp
0.0000000000000000e+00 8.3986442521492339e+00
0.0000000000000000e+00 8.3986442521492339e+00
0.0000000000000000e+00 8.3986442521492339e+00
ITEM: ATOMS id type xs ys zs
1 1 0.0174978 0.00577295 0.986463
2 1 0.111395 0.116354 0.993261
3 1 0.113263 0.00131589 0.0651286
4 1 0.0029146 0.0841467 0.0966548
5 1 0.218157 0.0128665 0.983
6 1 0.29461 0.116534 0.00445709
7 1 0.297241 0.0173288 0.10133
8 1 0.200903 0.104248 0.0877745
9 1 0.406983 0.995773 0.0124145
10 1 0.51871 0.0907351 0.000465232
11 1 0.491699 0.00961035 0.104115
12 1 0.406037 0.104067 0.0957269
13 1 0.582312 0.964284 0.0208352
14 1 0.680039 0.0923491 0.00296104
15 1 0.702125 0.993193 0.116942
16 1 0.597019 0.109191 0.114335
17 1 0.791817 0.0103209 0.997376
18 1 0.898609 0.107669 0.98861
19 1 0.889623 0.0242081 0.0956318
20 1 0.801838 0.104879 0.0920634
21 1 0.991028 0.192724 0.00441274
22 1 0.0863017 0.30997 0.995357
23 1 0.101492 0.188871 0.0821013
24 1 0.00133938 0.313393 0.088664
25 1 0.204453 0.205926 0.975686
26 1 0.283848 0.31258 0.0026279
27 1 0.285732 0.215592 0.0926656
28 1 0.18788 0.321134 0.0809711
29 1 0.407456 0.189576 0.997356
30 1 0.507206 0.297021 0.997261
31 1 0.508778 0.198393 0.0889336
32 1 0.387647 0.304671 0.0869268
33 1 0.601797 0.213396 0.98925
34 1 0.700671 0.291296 0.994544
35 1 0.700086 0.202428 0.0956436
36 1 0.586556 0.288294 0.102448
37 1 0.806599 0.214944 0.997868
38 1 0.90657 0.2934 0.995215
39 1 0.908312 0.204081 0.102137
40 1 0.808421 0.309622 0.0765802
41 1 0.000187962 0.404258 0.983147
42 1 0.0881954 0.501961 0.996207
43 1 0.0961424 0.399045 0.0921726
44 1 0.00184566 0.501825 0.10635
45 1 0.193694 0.409928 0.0028936
46 1 0.296217 0.501745 0.999115
47 1 0.285925 0.42215 0.098782
48 1 0.176961 0.511842 0.0992633
49 1 0.377169 0.415757 0.000687691
50 1 0.486666 0.469605 0.989753
51 1 0.487451 0.392296 0.0943999
52 1 0.397827 0.492082 0.0879116
53 1 0.600017 0.394811 0.0136163
54 1 0.710432 0.480333 0.983681
55 1 0.683567 0.376822 0.0952073
56 1 0.594604 0.498307 0.0841508
57 1 0.808226 0.403067 0.987632
58 1 0.901141 0.508262 0.985374
59 1 0.90354 0.395651 0.0748597
60 1 0.803241 0.508006 0.0858142
61 1 0.00240204 0.607167 0.993276
62 1 0.0916778 0.70836 0.984995
63 1 0.0893914 0.604402 0.0979148
64 1 0.0163998 0.697895 0.0967506
65 1 0.200239 0.60362 0.00360505
66 1 0.293521 0.707817 0.993041
67 1 0.298151 0.607653 0.10492
68 1 0.199319 0.701993 0.0906684
69 1 0.386208 0.608832 0.00824912
70 1 0.514922 0.690757 0.00791134
71 1 0.500154 0.581278 0.101234
72 1 0.399468 0.685147 0.124389
73 1 0.624714 0.601738 0.00617171
74 1 0.703843 0.693877 0.992841
75 1 0.71516 0.613903 0.0884221
76 1 0.613551 0.689541 0.109617
77 1 0.818864 0.617385 0.00922554
78 1 0.915447 0.703303 0.00916189
79 1 0.921925 0.604863 0.0936316
80 1 0.80767 0.716645 0.115711
81 1 0.994731 0.790589 0.992865
82 1 0.105671 0.893373 0.997148
83 1 0.0655643 0.822294 0.111093
84 1 0.00634298 0.928235 0.0847364
85 1 0.179193 0.795329 0.019092
86 1 0.307124 0.9198 0.00071448
87 1 0.311502 0.792057 0.111028
88 1 0.221101 0.899415 0.100437
89 1 0.413592 0.761005 0.0286886
90 1 0.490543 0.884003 0.040615
91 1 0.515685 0.77471 0.104694
92 1 0.381172 0.896613 0.114128
93 1 0.608037 0.783977 0.0160479
94 1 0.700152 0.886073 0.0127541
95 1 0.714305 0.793298 0.110762
96 1 0.618944 0.885502 0.111104
97 1 0.804242 0.794417 0.0165491
98 1 0.898554 0.877724 0.00674133
99 1 0.946132 0.798528 0.0959147
100 1 0.806304 0.902864 0.0908368
101 1 0.980552 0.0228934 0.210952
102 1 0.0961171 0.0994658 0.18744
103 1 0.100073 0.00438336 0.296724
104 1 0.972034 0.112683 0.32177
105 1 0.194314 0.0023582 0.182542
106 1 0.296298 0.128226 0.191417
107 1 0.286889 0.00922574 0.281446
108 1 0.188808 0.102244 0.283853
109 1 0.39628 0.00246367 0.192141
110 1 0.480496 0.0963387 0.206817
111 1 0.469421 0.994448 0.309387
112 1 0.384844 0.118614 0.277594
113 1 0.604229 0.00177248 0.191362
114 1 0.68956 0.113128 0.196005
115 1 0.674248 0.988114 0.283912
116 1 0.60433 0.109216 0.295438
117 1 0.792821 0.995835 0.201093
118 1 0.878059 0.117741 0.202629
119 1 0.878871 0.0319823 0.30348
120 1 0.777266 0.103027 0.292174
121 1 0.986028 0.206115 0.214349
122 1 0.101445 0.302011 0.177893
123 1 0.0690756 0.207598 0.314328
124 1 0.969169 0.283981 0.320969
125 1 0.192763 0.188106 0.188364
126 1 0.2894 0.298909 0.178265
127 1 0.284391 0.19834 0.304874
128 1 0.197598 0.291053 0.303593
129 1 0.420555 0.215325 0.184871
130 1 0.512494 0.320221 0.205283