LAMMPS (7 Feb 2024 - Update 1)
OMP_NUM_THREADS environment is not set. Defaulting to 1 thread. (src/comm.cpp:98)
  using 1 OpenMP thread(s) per MPI task
Lattice spacing in x,y,z = 3.615 3.615 3.615
Created orthogonal box = (0 0 0) to (18.075 18.075 18.075)
  1 by 1 by 1 MPI processor grid
Created 500 atoms
  using lattice units in orthogonal box = (0 0 0) to (18.075 18.075 18.075)
  create_atoms CPU = 0.001 seconds
Reading eam potential file Cu_u3.eam with DATE: 2007-06-11
Neighbor list info ...
  update: every = 1 steps, delay = 0 steps, check = yes
  max neighbors/atom: 2000, page size: 100000
  master list distance cutoff = 6.95
  ghost atom cutoff = 6.95
  binsize = 3.475, bins = 6 6 6
  1 neighbor lists, perpetual/occasional/extra = 1 0 0
  (1) pair eam, perpetual
      attributes: half, newton on
      pair build: half/bin/atomonly/newton
      stencil: half/bin/3d
      bin: standard
Setting up Verlet run ...
  Unit style    : metal
  Current step  : 0
  Time step     : 0.001
Per MPI rank memory allocation (min/avg/max) = 3.394 | 3.394 | 3.394 Mbytes
   Step          Temp          PotEng         KinEng         TotEng         Press     
         0   300           -1770           19.350244     -1750.6498      3499.9929    
       100   145.871       -1760.0556      9.4087978     -1750.6468      10129.334    
       200   152.80083     -1760.5032      9.8557777     -1750.6474      9627.5946    
       300   156.05931     -1760.7133      10.065952     -1750.6473      9534.6818    
       400   149.27633     -1760.2756      9.6284443     -1750.6471      9956.4551    
       500   127.82903     -1758.8921      8.2450764     -1750.6471      10607.795    
       600   136.09997     -1759.4255      8.7785586     -1750.6469      10439.509    
       700   166.444       -1761.3833      10.735773     -1750.6476      9093.1799    
       800   142.20916     -1759.8195      9.1726061     -1750.6469      10246.911    
       900   160.4475      -1760.9964      10.348994     -1750.6474      9323.9099    
      1000   161.55587     -1761.0678      10.420485     -1750.6473      9407.258     
      1100   151.27429     -1760.4044      9.7573145     -1750.647       9859.3337    
      1200   161.45583     -1761.0615      10.414032     -1750.6475      9268.7927    
      1300   156.92503     -1760.7689      10.121792     -1750.6471      9700.521     
      1400   141.5085      -1759.7746      9.1274129     -1750.6471      10109.683    
      1500   141.83942     -1759.7957      9.1487577     -1750.647       10161.49     
      1600   147.59978     -1760.1674      9.5203059     -1750.6471      9934.6568    
      1700   142.93126     -1759.8662      9.2191827     -1750.647       10166.187    
      1800   149.9579      -1760.3196      9.6724065     -1750.6472      9795.624     
      1900   168.01171     -1761.4843      10.836892     -1750.6474      9144.0817    
      2000   153.92183     -1760.5752      9.928083      -1750.6471      9741.4497    
      2100   147.32464     -1760.1497      9.5025589     -1750.6471      9991.8812    
      2200   162.13215     -1761.105       10.457655     -1750.6473      9358.7793    
      2300   147.45767     -1760.1583      9.5111398     -1750.6472      9929.6521    
      2400   146.71131     -1760.1102      9.4629984     -1750.6472      9963.5046    
      2500   142.81106     -1759.8587      9.2114293     -1750.6473      10037.5      
      2600   150.35353     -1760.3452      9.697925      -1750.6473      9858.326     
      2700   153.63833     -1760.5572      9.9097969     -1750.6474      9689.6145    
      2800   144.05384     -1759.9389      9.2915895     -1750.6473      10041.739    
      2900   139.9037      -1759.671       9.0239025     -1750.6471      10295.819    
      3000   155.90607     -1760.7035      10.056068     -1750.6474      9720.5965    
      3100   150.25459     -1760.339       9.691543      -1750.6475      9820.8561    
      3200   151.1249      -1760.3951      9.7476789     -1750.6474      9833.1662    
      3300   151.78224     -1760.4376      9.7900777     -1750.6475      9786.5293    
      3400   165.45612     -1761.3198      10.672054     -1750.6477      9203.6064    
      3500   153.55958     -1760.5522      9.9047179     -1750.6475      9748.4793    
      3600   142.64554     -1759.8482      9.2007532     -1750.6475      10070.321    
      3700   156.07769     -1760.7147      10.067138     -1750.6476      9652.3634    
      3800   144.26766     -1759.9528      9.3053812     -1750.6474      10075.58     
      3900   141.40838     -1759.7683      9.1209554     -1750.6474      10182.439    
      4000   157.90961     -1760.8328      10.185298     -1750.6475      9568.4497    
      4100   159.68996     -1760.9477      10.300132     -1750.6476      9481.4602    
      4200   153.01908     -1760.5173      9.8698549     -1750.6475      9737.7837    
      4300   155.1831      -1760.657       10.009436     -1750.6476      9686.0879    
      4400   153.07648     -1760.5211      9.8735575     -1750.6476      9697.0058    
      4500   143.45257     -1759.9002      9.2528075     -1750.6474      10128.536    
      4600   147.53339     -1760.1635      9.5160237     -1750.6475      9926.746     
      4700   148.56561     -1760.2301      9.5826027     -1750.6475      9848.6414    
      4800   137.75195     -1759.5325      8.8851129     -1750.6473      10309.302    
      4900   144.9663      -1759.9978      9.3504443     -1750.6474      10051.84     
      5000   150.35184     -1760.3453      9.6978156     -1750.6475      9808.3802    
      5100   150.9313      -1760.3827      9.7351917     -1750.6475      9685.8066    
      5200   143.14006     -1759.88        9.2326503     -1750.6474      10017.746    
      5300   157.32273     -1760.7949      10.147444     -1750.6475      9538.7834    
      5400   159.98276     -1760.9665      10.319018     -1750.6475      9483.9118    
      5500   143.93999     -1759.9316      9.2842461     -1750.6473      10000.501    
      5600   160.30124     -1760.9872      10.33956      -1750.6477      9407.6821    
      5700   153.12704     -1760.5243      9.8768186     -1750.6475      9728.3898    
      5800   149.07973     -1760.2632      9.6157636     -1750.6475      9868.3599    
      5900   147.45619     -1760.1585      9.5110441     -1750.6474      9881.8232    
      6000   151.80756     -1760.4392      9.791711      -1750.6475      9766.0934    
      6100   156.39357     -1760.735       10.087512     -1750.6475      9539.3781    
      6200   159.07459     -1760.9079      10.260441     -1750.6475      9437.193     
      6300   146.40864     -1760.0907      9.443476      -1750.6473      9935.8641    
      6400   153.75161     -1760.5645      9.9171037     -1750.6474      9640.5256    
      6500   146.62355     -1760.1046      9.4573384     -1750.6472      9979.9367    
      6600   153.15859     -1760.5262      9.8788538     -1750.6473      9731.7184    
      6700   154.15128     -1760.5903      9.942883      -1750.6474      9680.3022    
      6800   146.99389     -1760.1286      9.4812251     -1750.6474      9910.7916    
      6900   147.71184     -1760.1749      9.5275334     -1750.6473      9993.734     
      7000   151.7807      -1760.4374      9.7899781     -1750.6474      9823.7215    
      7100   150.07006     -1760.3271      9.6796409     -1750.6475      9790.0534    
      7200   147.57913     -1760.1663      9.5189738     -1750.6473      9947.5914    
      7300   155.45559     -1760.6744      10.027012     -1750.6473      9662.3556    
      7400   153.86259     -1760.5717      9.9242622     -1750.6474      9670.301     
      7500   150.08985     -1760.3283      9.6809172     -1750.6474      9846.9561    
      7600   149.53998     -1760.2928      9.6454501     -1750.6474      9859.1973    
      7700   153.60148     -1760.5548      9.9074201     -1750.6474      9740.4602    
      7800   151.28716     -1760.4056      9.7581448     -1750.6475      9763.6562    
      7900   146.84557     -1760.1191      9.4716589     -1750.6474      9966.4553    
      8000   151.54911     -1760.4225      9.7750406     -1750.6475      9786.9502    
      8100   145.38329     -1760.0247      9.3773404     -1750.6473      10030.894    
      8200   144.64049     -1759.9767      9.329429      -1750.6473      10033.157    
      8300   152.54126     -1760.4865      9.8390349     -1750.6474      9708.6228    
      8400   143.27903     -1759.8889      9.241614      -1750.6473      10076.887    
      8500   148.97113     -1760.2562      9.6087587     -1750.6474      9779.5199    
      8600   151.04744     -1760.3901      9.7426823     -1750.6474      9764.5516    
      8700   149.1475      -1760.2675      9.6201347     -1750.6474      9819.4847    
      8800   148.33968     -1760.2154      9.5680297     -1750.6474      9880.0223    
      8900   146.9668      -1760.127       9.4794781     -1750.6475      9937.0685    
      9000   148.69241     -1760.2382      9.5907815     -1750.6474      9925.8438    
      9100   152.27747     -1760.4695      9.8220206     -1750.6475      9795.994     
      9200   148.53566     -1760.228       9.5806704     -1750.6473      9925.0808    
      9300   147.88741     -1760.1863      9.5388578     -1750.6475      9816.9244    
      9400   146.19325     -1760.0769      9.4295836     -1750.6473      10038.956    
      9500   151.69777     -1760.432       9.7846295     -1750.6474      9806.8787    
      9600   149.36917     -1760.2818      9.6344326     -1750.6473      9825.4751    
      9700   147.11375     -1760.1363      9.4889566     -1750.6474      9894.7348    
      9800   151.21729     -1760.401       9.7536379     -1750.6473      9802.9757    
      9900   155.79275     -1760.6961      10.048759     -1750.6474      9593.2382    
     10000   142.28008     -1759.8244      9.1771805     -1750.6472      10110.26     
Loop time of 10.7801 on 1 procs for 10000 steps with 500 atoms

Performance: 80.148 ns/day, 0.299 hours/ns, 927.637 timesteps/s, 463.818 katom-step/s
95.6% CPU use with 1 MPI tasks x 1 OpenMP threads

MPI task timing breakdown:
Section |  min time  |  avg time  |  max time  |%varavg| %total
---------------------------------------------------------------
Pair    | 10.521     | 10.521     | 10.521     |   0.0 | 97.60
Neigh   | 0          | 0          | 0          |   0.0 |  0.00
Comm    | 0.13036    | 0.13036    | 0.13036    |   0.0 |  1.21
Output  | 0.0034409  | 0.0034409  | 0.0034409  |   0.0 |  0.03
Modify  | 0.067715   | 0.067715   | 0.067715   |   0.0 |  0.63
Other   |            | 0.0571     |            |       |  0.53

Nlocal:            500 ave         500 max         500 min
Histogram: 1 0 0 0 0 0 0 0 0 0
Nghost:           1956 ave        1956 max        1956 min
Histogram: 1 0 0 0 0 0 0 0 0 0
Neighs:          33500 ave       33500 max       33500 min
Histogram: 1 0 0 0 0 0 0 0 0 0

Total # of neighbors = 33500
Ave neighs/atom = 67
Neighbor list builds = 0
Dangerous builds = 0
Total wall time: 0:00:10
