LAMMPS (7 Feb 2024 - Update 1)
OMP_NUM_THREADS environment is not set. Defaulting to 1 thread. (src/comm.cpp:98)
  using 1 OpenMP thread(s) per MPI task
Lattice spacing in x,y,z = 3.615 3.615 3.615
Created orthogonal box = (0 0 0) to (18.075 18.075 18.075)
  1 by 1 by 1 MPI processor grid
Created 500 atoms
  using lattice units in orthogonal box = (0 0 0) to (18.075 18.075 18.075)
  create_atoms CPU = 0.001 seconds
Reading eam potential file Cu_u3.eam with DATE: 2007-06-11
Neighbor list info ...
  update: every = 1 steps, delay = 0 steps, check = yes
  max neighbors/atom: 2000, page size: 100000
  master list distance cutoff = 6.95
  ghost atom cutoff = 6.95
  binsize = 3.475, bins = 6 6 6
  1 neighbor lists, perpetual/occasional/extra = 1 0 0
  (1) pair eam, perpetual
      attributes: half, newton on
      pair build: half/bin/atomonly/newton
      stencil: half/bin/3d
      bin: standard
Setting up Verlet run ...
  Unit style    : metal
  Current step  : 0
  Time step     : 0.001
Per MPI rank memory allocation (min/avg/max) = 3.394 | 3.394 | 3.394 Mbytes
   Step          Temp          PotEng         KinEng         TotEng         Press     
         0   300           -1770           19.350244     -1750.6498      3499.9929    
       100   231.72191     -1754.3416      14.946251     -1739.3953      15576.82     
       200   289.6686      -1752.026       18.68386      -1733.3421      18023.875    
       300   301.70377     -1750.2981      19.460138     -1730.838       19715.335    
       400   311.20164     -1750.617       20.072758     -1730.5443      19553.492    
       500   298.10738     -1751.1321      19.228168     -1731.9039      18931.087    
       600   310.56389     -1749.5137      20.031623     -1729.4821      20588.001    
       700   295.8457      -1750.9974      19.082288     -1731.9151      18952.748    
       800   299.73635     -1751.6066      19.333238     -1732.2733      18568.981    
       900   306.34028     -1750.944       19.759197     -1731.1848      19227.091    
      1000   306.97913     -1750.8196      19.800403     -1731.0192      19379.911    
      1100   312.28267     -1751.0139      20.142486     -1730.8714      19230.819    
      1200   303.79821     -1751.1485      19.595231     -1731.5532      18971.956    
      1300   290.15143     -1749.9064      18.715003     -1731.1914      19979.29     
      1400   300.85544     -1751.0806      19.40542      -1731.6752      19155.986    
      1500   306.46365     -1751.009       19.767154     -1731.2418      19269.548    
      1600   295.45503     -1751.3473      19.05709      -1732.2902      18782.991    
      1700   303.05954     -1750.5337      19.547586     -1730.9862      19382.444    
      1800   308.59942     -1750.3511      19.904913     -1730.4462      19761.3      
      1900   308.70326     -1750.3327      19.911611     -1730.4211      19599.925    
      2000   314.43048     -1749.8898      20.281022     -1729.6088      20208.979    
      2100   301.79858     -1750.7522      19.466253     -1731.2859      19271.905    
      2200   283.66444     -1750.6897      18.296587     -1732.3931      19047.213    
      2300   294.93496     -1750.6791      19.023544     -1731.6555      19185.049    
      2400   289.37895     -1750.7964      18.665177     -1732.1312      19167.579    
      2500   299.93149     -1750.6734      19.345825     -1731.3275      19398.254    
      2600   314.87714     -1750.6783      20.309831     -1730.3685      19657.532    
      2700   305.19922     -1750.0733      19.685597     -1730.3877      19831.785    
      2800   301.4128      -1749.5684      19.441371     -1730.127       20264.513    
      2900   310.55534     -1750.2398      20.031072     -1730.2087      19992.217    
      3000   297.70519     -1749.3267      19.202226     -1730.1245      20475.465    
      3100   294.89393     -1749.2592      19.020898     -1730.2383      20314.224    
      3200   306.75382     -1749.4005      19.78587      -1729.6146      20423.716    
      3300   318.70227     -1749.5777      20.556555     -1729.0211      20320.982    
      3400   327.88534     -1750.5667      21.148871     -1729.4179      19808.829    
      3500   316.12979     -1749.4492      20.390629     -1729.0586      20540.33     
      3600   323.55791     -1751.2223      20.869748     -1730.3525      19350.849    
      3700   292.75767     -1750.0918      18.883108     -1731.2087      19765.091    
      3800   295.25238     -1751.6706      19.044018     -1732.6265      18476.994    
      3900   300.86463     -1751.1288      19.406013     -1731.7228      19071.29     
      4000   295.87736     -1750.929       19.08433      -1731.8447      19282.838    
      4100   291.95778     -1749.7325      18.831514     -1730.901       20062.726    
      4200   296.3762      -1752.1293      19.116506     -1733.0128      18073.754    
      4300   313.59026     -1750.7734      20.226826     -1730.5465      19496.588    
      4400   283.22538     -1750.974       18.268267     -1732.7057      18957.022    
      4500   288.29457     -1750.682       18.595234     -1732.0867      19251.535    
      4600   316.23379     -1751.8706      20.397336     -1731.4733      18550.792    
      4700   277.44643     -1751.2399      17.89552      -1733.3444      18650.531    
      4800   290.49876     -1751.061       18.737406     -1732.3236      18862.222    
      4900   318.16627     -1751.0322      20.521983     -1730.5102      19391.771    
      5000   304.65981     -1750.8912      19.650805     -1731.2404      19395.221    
      5100   301.96288     -1750.8497      19.476851     -1731.3728      19271.52     
      5200   296.07967     -1750.8611      19.097379     -1731.7637      19197.106    
      5300   312.61205     -1749.931       20.163731     -1729.7672      20146.619    
      5400   298.46244     -1749.3816      19.25107      -1730.1306      20508.413    
      5500   312.69943     -1750.2872      20.169367     -1730.1178      19935.919    
      5600   303.51207     -1750.3309      19.576775     -1730.7542      19525.947    
      5700   292.60919     -1749.4399      18.873531     -1730.5663      20196.061    
      5800   289.80225     -1750.295       18.692481     -1731.6025      19722.506    
      5900   302.07659     -1750.9086      19.484185     -1731.4244      19088.372    
      6000   312.1918      -1750.6564      20.136625     -1730.5197      19524.672    
      6100   314.15755     -1750.0361      20.263417     -1729.7727      20010.011    
      6200   288.21607     -1749.754       18.590171     -1731.1639      20082.298    
      6300   305.16582     -1751.5086      19.683443     -1731.8252      18715.364    
      6400   274.31942     -1750.2381      17.693826     -1732.5443      19414.47     
      6500   292.63646     -1750.5587      18.87529      -1731.6834      19270.356    
      6600   309.69848     -1749.6611      19.975804     -1729.6853      20230.113    
      6700   309.96698     -1749.7481      19.993122     -1729.7549      20309.078    
      6800   297.45627     -1748.4849      19.186171     -1729.2987      21073.504    
      6900   301.5374      -1751.2851      19.449407     -1731.8357      18798.014    
      7000   291.70366     -1751.1225      18.815123     -1732.3074      18774.243    
      7100   287.36502     -1750.6639      18.535277     -1732.1286      19249.368    
      7200   283.49036     -1750.1342      18.285359     -1731.8489      19725.265    
      7300   288.70001     -1749.7809      18.621385     -1731.1595      20067.214    
      7400   311.78998     -1749.4972      20.110707     -1729.3865      20626.508    
      7500   294.50468     -1749.2508      18.995791     -1730.255       20466.235    
      7600   300.21281     -1751.3053      19.36397      -1731.9413      19018.368    
      7700   301.54345     -1751.3718      19.449798     -1731.922       18836.582    
      7800   306.00697     -1752.0932      19.737698     -1732.3555      18324.324    
      7900   307.06469     -1749.0782      19.805922     -1729.2723      20723.423    
      8000   310.03663     -1748.3443      19.997614     -1728.3467      21177.64     
      8100   303.69637     -1749.9322      19.588662     -1730.3435      20026.192    
      8200   291.26154     -1750.6211      18.786606     -1731.8345      19425.898    
      8300   302.7334      -1751.2207      19.52655      -1731.6941      18968.499    
      8400   303.39204     -1750.5065      19.569033     -1730.9374      19504.216    
      8500   317.33156     -1750.4273      20.468143     -1729.9592      19740.68     
      8600   314.30663     -1749.7695      20.273033     -1729.4965      20427.532    
      8700   313.04813     -1751.2569      20.191858     -1731.065       19092.151    
      8800   309.05037     -1750.2472      19.934        -1730.3132      19598.9      
      8900   309.41807     -1749.7169      19.957717     -1729.7592      20275.499    
      9000   321.17888     -1750.8627      20.716298     -1730.1464      19447.578    
      9100   299.0943      -1750.389       19.291825     -1731.0972      19549.84     
      9200   304.6457      -1750.0204      19.649895     -1730.3705      19880.309    
      9300   309.70118     -1749.6408      19.975978     -1729.6648      20254.952    
      9400   319.3048      -1749.8969      20.595419     -1729.3015      20067.599    
      9500   325.8038      -1750.6713      21.01461      -1729.6567      19799.82     
      9600   311.99492     -1749.5191      20.123926     -1729.3952      20494.666    
      9700   316.27241     -1749.6609      20.399828     -1729.261       20517.628    
      9800   296.63874     -1750.6619      19.13344      -1731.5285      19284.058    
      9900   289.13308     -1751.0036      18.649319     -1732.3543      18857.446    
     10000   287.56982     -1749.9409      18.548487     -1731.3924      19808.258    
Loop time of 11.9951 on 1 procs for 10000 steps with 500 atoms

Performance: 72.030 ns/day, 0.333 hours/ns, 833.675 timesteps/s, 416.837 katom-step/s
95.6% CPU use with 1 MPI tasks x 1 OpenMP threads

MPI task timing breakdown:
Section |  min time  |  avg time  |  max time  |%varavg| %total
---------------------------------------------------------------
Pair    | 11.293     | 11.293     | 11.293     |   0.0 | 94.15
Neigh   | 0          | 0          | 0          |   0.0 |  0.00
Comm    | 0.14112    | 0.14112    | 0.14112    |   0.0 |  1.18
Output  | 0.0038601  | 0.0038601  | 0.0038601  |   0.0 |  0.03
Modify  | 0.48633    | 0.48633    | 0.48633    |   0.0 |  4.05
Other   |            | 0.0705     |            |       |  0.59

Nlocal:            500 ave         500 max         500 min
Histogram: 1 0 0 0 0 0 0 0 0 0
Nghost:           1956 ave        1956 max        1956 min
Histogram: 1 0 0 0 0 0 0 0 0 0
Neighs:          33500 ave       33500 max       33500 min
Histogram: 1 0 0 0 0 0 0 0 0 0

Total # of neighbors = 33500
Ave neighs/atom = 67
Neighbor list builds = 0
Dangerous builds = 0
Total wall time: 0:00:12
