LAMMPS (7 Feb 2024 - Update 1)
OMP_NUM_THREADS environment is not set. Defaulting to 1 thread. (src/comm.cpp:98)
  using 1 OpenMP thread(s) per MPI task
Lattice spacing in x,y,z = 3.615 3.615 3.615
Created orthogonal box = (0 0 0) to (18.075 18.075 18.075)
  1 by 1 by 1 MPI processor grid
Created 500 atoms
  using lattice units in orthogonal box = (0 0 0) to (18.075 18.075 18.075)
  create_atoms CPU = 0.001 seconds
Reading eam potential file Cu_u3.eam with DATE: 2007-06-11
Neighbor list info ...
  update: every = 1 steps, delay = 0 steps, check = yes
  max neighbors/atom: 2000, page size: 100000
  master list distance cutoff = 6.95
  ghost atom cutoff = 6.95
  binsize = 3.475, bins = 6 6 6
  1 neighbor lists, perpetual/occasional/extra = 1 0 0
  (1) pair eam, perpetual
      attributes: half, newton on
      pair build: half/bin/atomonly/newton
      stencil: half/bin/3d
      bin: standard
Setting up Verlet run ...
  Unit style    : metal
  Current step  : 0
  Time step     : 0.001
Per MPI rank memory allocation (min/avg/max) = 3.394 | 3.394 | 3.394 Mbytes
   Step          Temp          PotEng         KinEng         TotEng         Press     
         0   300           -1770           19.350244     -1750.6498      3499.9929    
       100   156.39795     -1759.2179      10.087795     -1749.1301      10973.255    
       200   193.27621     -1758.1123      12.466473     -1745.6459      12034.472    
       300   229.0628      -1756.1426      14.774737     -1741.3678      14081.045    
       400   256.61818     -1753.5084      16.552081     -1736.9563      16762.522    
       500   243.72009     -1748.6398      15.720144     -1732.9197      20164.092    
       600   289.76411     -1748.6202      18.690021     -1729.9302      20930.689    
       700   346.31322     -1751.1115      22.337484     -1728.774       19425.902    
       800   293.39833     -1748.8785      18.92443      -1729.9541      20898.319    
       900   315.81093     -1752.3924      20.370062     -1732.0223      18053.384    
      1000   302.00279     -1752.5415      19.479425     -1733.0621      18061.023    
      1100   295.68978     -1751.5666      19.072231     -1732.4944      18694.782    
      1200   318.24805     -1751.4662      20.527258     -1730.939       18796.362    
      1300   315.68169     -1749.8254      20.361725     -1729.4637      20456.892    
      1400   300.29582     -1749.4213      19.369324     -1730.052       20307.639    
      1500   281.09429     -1749.6874      18.13081      -1731.5566      19828.1      
      1600   290.23987     -1751.0698      18.720707     -1732.3491      18911.325    
      1700   287.30009     -1751.1005      18.531089     -1732.5694      18939.983    
      1800   297.17972     -1750.911       19.168333     -1731.7427      18985.09     
      1900   338.87781     -1752.0998      21.857894     -1730.2419      18845.809    
      2000   313.15672     -1750.4896      20.198863     -1730.2907      19692.73     
      2100   298.32918     -1750.1158      19.242475     -1730.8733      19768.29     
      2200   298.5663      -1750.936       19.257769     -1731.6783      19219.775    
      2300   296.93103     -1751.5263      19.152293     -1732.374       18572.032    
      2400   285.06188     -1750.3074      18.386723     -1731.9207      19350.54     
      2500   295.45132     -1750.0889      19.05685      -1731.032       19713.935    
      2600   298.50748     -1749.9369      19.253975     -1730.6829      19883.407    
      2700   313.71511     -1750.6729      20.234879     -1730.438       19556.52     
      2800   287.97685     -1750.0665      18.574741     -1731.4918      19587.845    
      2900   282.73259     -1750.6363      18.236482     -1732.3998      19378.964    
      3000   304.80583     -1752.4686      19.660224     -1732.8084      18052.979    
      3100   292.33122     -1750.784       18.855601     -1731.9284      19097.943    
      3200   296.78944     -1749.4119      19.14316      -1730.2687      20255.845    
      3300   313.34453     -1750.4205      20.210977     -1730.2095      19713.469    
      3400   302.71417     -1750.8227      19.52531      -1731.2974      19277.692    
      3500   294.61863     -1751.139       19.003141     -1732.1359      18901.311    
      3600   289.38056     -1751.0853      18.665281     -1732.42        18899.461    
      3700   308.49644     -1751.3391      19.898271     -1731.4408      18850.423    
      3800   300.16149     -1749.4067      19.36066      -1730.046       20377.633    
      3900   301.78734     -1749.8111      19.465528     -1730.3456      20026.679    
      4000   296.96292     -1750.574       19.15435      -1731.4196      19405.411    
      4100   293.68517     -1751.2262      18.942932     -1732.2832      18783.96     
      4200   300.34602     -1751.7499      19.372562     -1732.3773      18528.604    
      4300   304.22765     -1749.7199      19.622931     -1730.0969      20300.693    
      4400   319.19431     -1750.2468      20.588292     -1729.6585      20005.657    
      4500   296.66937     -1750.0877      19.135415     -1730.9522      19699.905    
      4600   291.62073     -1750.6479      18.809774     -1731.8381      19424.963    
      4700   297.08688     -1751.1265      19.162345     -1731.9641      18997.227    
      4800   291.24748     -1750.2154      18.785699     -1731.4297      19604.818    
      4900   313.93568     -1749.7044      20.249106     -1729.4553      20416.057    
      5000   318.69624     -1750.3632      20.556166     -1729.8071      19809.273    
      5100   293.56111     -1750.1226      18.93493      -1731.1876      19719.975    
      5200   300.67981     -1751.2593      19.394092     -1731.8652      18865.883    
      5300   293.43694     -1750.6821      18.926921     -1731.7552      19376.322    
      5400   313.8516      -1751.3185      20.243683     -1731.0748      19054.031    
      5500   292.30255     -1749.8932      18.853752     -1731.0394      19825.362    
      5600   312.98817     -1750.4103      20.187991     -1730.2223      19683.185    
      5700   335.71351     -1750.8246      21.653794     -1729.1708      19594.265    
      5800   281.59938     -1748.531       18.163389     -1730.3676      20846.481    
      5900   304.01431     -1750.9449      19.60917      -1731.3357      19053.271    
      6000   304.01744     -1751.5204      19.609372     -1731.911       18800.058    
      6100   301.58447     -1751.4917      19.452443     -1732.0393      18553.339    
      6200   297.99318     -1749.4536      19.220802     -1730.2328      20298.489    
      6300   322.83401     -1750.1616      20.823056     -1729.3386      20084.906    
      6400   305.48402     -1749.8988      19.703968     -1730.1949      19967.174    
      6500   293.26715     -1749.9841      18.915969     -1731.0681      19755.461    
      6600   287.24385     -1750.136       18.527462     -1731.6085      19649.357    
      6700   295.3716      -1750.5347      19.051708     -1731.483       19525.329    
      6800   293.62907     -1750.2256      18.939313     -1731.2863      19586.967    
      6900   308.69038     -1750.6143      19.91078      -1730.7036      19544.998    
      7000   316.41044     -1750.1329      20.408731     -1729.7241      20051.648    
      7100   312.53095     -1750.3212      20.1585       -1730.1627      19710.667    
      7200   296.58953     -1750.6878      19.130266     -1731.5575      19185.08     
      7300   303.34942     -1751.4828      19.566284     -1731.9165      18735.707    
      7400   286.09783     -1750.3187      18.453543     -1731.8652      19552.858    
      7500   285.01541     -1748.8822      18.383725     -1730.4985      20560.577    
      7600   318.18988     -1749.8017      20.523505     -1729.2782      20268.827    
      7700   315.14224     -1750.6212      20.326931     -1730.2943      19479.559    
      7800   303.27003     -1750.9339      19.561163     -1731.3727      19117.812    
      7900   296.68729     -1750.8533      19.136571     -1731.7167      19146.464    
      8000   292.3933      -1750.2962      18.859605     -1731.4366      19656.83     
      8100   297.70567     -1749.8633      19.202258     -1730.6611      19821.006    
      8200   296.12024     -1748.243       19.099996     -1729.143       21280.755    
      8300   315.19113     -1749.9769      20.330084     -1729.6468      20119.627    
      8400   303.35301     -1750.8948      19.566515     -1731.3282      19232.184    
      8500   272.89297     -1749.4915      17.601818     -1731.8897      20035.637    
      8600   290.60773     -1750.1821      18.744434     -1731.4377      19698.801    
      8700   318.75723     -1751.0522      20.560101     -1730.4921      19457.266    
      8800   321.77453     -1750.6245      20.754718     -1729.8698      19698.591    
      8900   321.61626     -1750.1806      20.74451      -1729.4361      20052.372    
      9000   305.5328      -1750.3768      19.707114     -1730.6697      19786.179    
      9100   293.48451     -1750.9444      18.929989     -1732.0144      19079.351    
      9200   300.46504     -1751.472       19.380239     -1732.0917      18816.721    
      9300   296.63577     -1750.5516      19.133248     -1731.4184      19514.5      
      9400   301.49133     -1749.2386      19.446435     -1729.7922      20502.242    
      9500   307.31446     -1749.414       19.822033     -1729.592       20587.143    
      9600   304.16299     -1750.1157      19.61876      -1730.497       20002.967    
      9700   301.16668     -1750.3574      19.425496     -1730.9319      19740.494    
      9800   295.19258     -1750.4958      19.040161     -1731.4556      19404.843    
      9900   297.32209     -1750.985       19.177516     -1731.8074      19315.941    
     10000   300.42201     -1751.8098      19.377464     -1732.4323      18527.319    
Loop time of 11.2659 on 1 procs for 10000 steps with 500 atoms

Performance: 76.691 ns/day, 0.313 hours/ns, 887.633 timesteps/s, 443.816 katom-step/s
95.7% CPU use with 1 MPI tasks x 1 OpenMP threads

MPI task timing breakdown:
Section |  min time  |  avg time  |  max time  |%varavg| %total
---------------------------------------------------------------
Pair    | 10.917     | 10.917     | 10.917     |   0.0 | 96.90
Neigh   | 0          | 0          | 0          |   0.0 |  0.00
Comm    | 0.14642    | 0.14642    | 0.14642    |   0.0 |  1.30
Output  | 0.0031585  | 0.0031585  | 0.0031585  |   0.0 |  0.03
Modify  | 0.15336    | 0.15336    | 0.15336    |   0.0 |  1.36
Other   |            | 0.04632    |            |       |  0.41

Nlocal:            500 ave         500 max         500 min
Histogram: 1 0 0 0 0 0 0 0 0 0
Nghost:           1956 ave        1956 max        1956 min
Histogram: 1 0 0 0 0 0 0 0 0 0
Neighs:          33500 ave       33500 max       33500 min
Histogram: 1 0 0 0 0 0 0 0 0 0

Total # of neighbors = 33500
Ave neighs/atom = 67
Neighbor list builds = 0
Dangerous builds = 0
Total wall time: 0:00:11
