LAMMPS (7 Feb 2024 - Update 1)
OMP_NUM_THREADS environment is not set. Defaulting to 1 thread. (src/comm.cpp:98)
  using 1 OpenMP thread(s) per MPI task
# --- INITIALIZATION ---

units			lj
atom_style		atomic
boundary		p p p


# --- ATOM DEFINITION ---

lattice			fcc 0.844
Lattice spacing in x,y,z = 1.6797289 1.6797289 1.6797289
region			simbox block 0 5 0 5 0 5
create_box		1 simbox
Created orthogonal box = (0 0 0) to (8.3986443 8.3986443 8.3986443)
  1 by 1 by 1 MPI processor grid
create_atoms	1 box
Created 500 atoms
  using lattice units in orthogonal box = (0 0 0) to (8.3986443 8.3986443 8.3986443)
  create_atoms CPU = 0.001 seconds
mass			1 1.0


# --- FORCE FIELD ---

pair_style		lj/cut 2.5
pair_coeff		1 1 1.0 1.0 2.5


# --- SETTINGS ---

velocity		all create 1.0 87287 dist gaussian
neighbor		0.3 bin
neigh_modify	delay 0 every 20 check no


# --- OUTPUT ---
thermo			100
thermo_style	custom step temp pe ke etotal press density


# --- RUN ---
fix				1 all nve
timestep		0.005
dump			1 all atom 100 ../outputs/dump.argon.lammpstrj
run				10000
Generated 0 of 0 mixed pair_coeff terms from geometric mixing rule
Neighbor list info ...
  update: every = 20 steps, delay = 0 steps, check = no
  max neighbors/atom: 2000, page size: 100000
  master list distance cutoff = 2.8
  ghost atom cutoff = 2.8
  binsize = 1.4, bins = 6 6 6
  1 neighbor lists, perpetual/occasional/extra = 1 0 0
  (1) pair lj/cut, perpetual
      attributes: half, newton on
      pair build: half/bin/atomonly/newton
      stencil: half/bin/3d
      bin: standard
Per MPI rank memory allocation (min/avg/max) = 2.644 | 2.644 | 2.644 Mbytes
   Step          Temp          PotEng         KinEng         TotEng         Press         Density    
         0   1             -6.7716177      1.497         -5.2746177     -5.3934991      0.844        
       100   0.50032248    -6.0314431      0.74898275    -5.2824604     -1.4564383      0.844        
       200   0.54893709    -6.1048065      0.82175882    -5.2830477     -1.8360473      0.844        
       300   0.56247366    -6.1235128      0.84202308    -5.2814898     -1.9253105      0.844        
       400   0.54657283    -6.0987136      0.81821953    -5.2804941     -1.8219222      0.844        
       500   0.56210098    -6.1231824      0.84146517    -5.2817172     -1.940836       0.844        
       600   0.52136018    -6.0625985      0.78047619    -5.2821223     -1.5690819      0.844        
       700   0.53881961    -6.0866922      0.80661296    -5.2800792     -1.7514308      0.844        
       800   0.55148638    -6.1064796      0.82557512    -5.2809045     -1.8165824      0.844        
       900   0.53761458    -6.0859277      0.80480902    -5.2811187     -1.7680094      0.844        
      1000   0.5505463     -6.1070598      0.82416781    -5.2828919     -1.8681601      0.844        
      1100   0.5201124     -6.0609922      0.77860826    -5.282384      -1.5382738      0.844        
      1200   0.54822804    -6.1012868      0.82069738    -5.2805894     -1.8606282      0.844        
      1300   0.55476539    -6.1111761      0.83048379    -5.2806923     -1.8650146      0.844        
      1400   0.53046153    -6.0759649      0.79410092    -5.281864      -1.5917064      0.844        
      1500   0.55175923    -6.1071444      0.82598357    -5.2811608     -1.772646       0.844        
      1600   0.5460901     -6.1007996      0.81749688    -5.2833027     -1.8030761      0.844        
      1700   0.5514681     -6.1094659      0.82554774    -5.2839181     -1.834959       0.844        
      1800   0.54477613    -6.0977841      0.81552987    -5.2822543     -1.78727        0.844        
      1900   0.55353077    -6.1087918      0.82863556    -5.2801562     -1.8337687      0.844        
      2000   0.5298314     -6.0752997      0.79315761    -5.2821421     -1.6804315      0.844        
      2100   0.52678407    -6.0689875      0.78859575    -5.2803918     -1.6810788      0.844        
      2200   0.54688208    -6.0989052      0.81868248    -5.2802227     -1.8030948      0.844        
      2300   0.56751528    -6.1302918      0.84957038    -5.2807214     -1.9309667      0.844        
      2400   0.54166611    -6.0924765      0.81087417    -5.2816023     -1.7185857      0.844        
      2500   0.56632423    -6.1281143      0.84778737    -5.280327      -1.9205506      0.844        
      2600   0.56050184    -6.119975       0.83907126    -5.2809038     -1.8975172      0.844        
      2700   0.53443807    -6.0815662      0.80005379    -5.2815124     -1.6442398      0.844        
      2800   0.55530505    -6.1141383      0.83129166    -5.2828466     -1.8342034      0.844        
      2900   0.54808776    -6.1013262      0.82048737    -5.2808388     -1.8143419      0.844        
      3000   0.56089871    -6.1190266      0.83966537    -5.2793612     -1.9291346      0.844        
      3100   0.54903985    -6.1025377      0.82191265    -5.2806251     -1.8503461      0.844        
      3200   0.51013163    -6.0436203      0.76366705    -5.2799533     -1.6141265      0.844        
      3300   0.55221411    -6.1052736      0.82666452    -5.2786091     -1.8735738      0.844        
      3400   0.54461843    -6.0967586      0.81529379    -5.2814648     -1.8601328      0.844        
      3500   0.50609529    -6.0420966      0.75762465    -5.284472      -1.4883795      0.844        
      3600   0.54841757    -6.1041196      0.82098111    -5.2831385     -1.8242768      0.844        
      3700   0.54211939    -6.0925533      0.81155273    -5.2810005     -1.7454112      0.844        
      3800   0.540388      -6.0900933      0.80896084    -5.2811325     -1.7558444      0.844        
      3900   0.55221718    -6.1071671      0.82666913    -5.280498      -1.8661131      0.844        
      4000   0.54316577    -6.0925459      0.81311915    -5.2794268     -1.8041743      0.844        
      4100   0.55587379    -6.1122544      0.83214306    -5.2801114     -1.9175598      0.844        
      4200   0.5122805     -6.0477032      0.7668839     -5.2808193     -1.566661       0.844        
      4300   0.56799193    -6.1327716      0.85028391    -5.2824877     -1.9641459      0.844        
      4400   0.53242999    -6.0802849      0.7970477     -5.2832372     -1.6547169      0.844        
      4500   0.55348032    -6.1106233      0.82856003    -5.2820633     -1.8352068      0.844        
      4600   0.53394691    -6.0796732      0.79931852    -5.2803546     -1.7061813      0.844        
      4700   0.55898058    -6.1154742      0.83679393    -5.2786803     -1.9440863      0.844        
      4800   0.54087595    -6.0909407      0.8096913     -5.2812494     -1.7741829      0.844        
      4900   0.55473689    -6.1125551      0.83044112    -5.282114      -1.8477285      0.844        
      5000   0.53730111    -6.0864619      0.80433977    -5.2821221     -1.7409425      0.844        
      5100   0.54815925    -6.1022743      0.8205944     -5.2816799     -1.9026514      0.844        
      5200   0.57185237    -6.1374552      0.856063      -5.2813922     -2.0054839      0.844        
      5300   0.52875654    -6.0742787      0.79154854    -5.2827302     -1.627427       0.844        
      5400   0.5310144     -6.0761046      0.79492856    -5.281176      -1.6951283      0.844        
      5500   0.56886681    -6.1318369      0.85159361    -5.2802432     -1.9573684      0.844        
      5600   0.53350699    -6.081032       0.79865996    -5.282372      -1.739386       0.844        
      5700   0.56076454    -6.1210022      0.83946452    -5.2815377     -1.9243232      0.844        
      5800   0.52689089    -6.0702163      0.78875566    -5.2814607     -1.6150682      0.844        
      5900   0.53104068    -6.0772747      0.79496789    -5.2823068     -1.7375995      0.844        
      6000   0.56811941    -6.132024       0.85047476    -5.2815492     -1.9851711      0.844        
      6100   0.54830422    -6.1035336      0.82081141    -5.2827222     -1.8609369      0.844        
      6200   0.53318741    -6.0813723      0.79818155    -5.2831907     -1.7095563      0.844        
      6300   0.5296965     -6.0764078      0.79295567    -5.2834522     -1.6952822      0.844        
      6400   0.53393596    -6.0796308      0.79930212    -5.2803287     -1.702158       0.844        
      6500   0.55008136    -6.1042446      0.82347179    -5.2807728     -1.828193       0.844        
      6600   0.53090622    -6.0758128      0.79476661    -5.2810462     -1.6412718      0.844        
      6700   0.56556824    -6.1282004      0.84665565    -5.2815447     -2.0125938      0.844        
      6800   0.5504491     -6.1059306      0.8240223     -5.2819083     -1.806193       0.844        
      6900   0.53790012    -6.0876324      0.80523648    -5.282396      -1.7493969      0.844        
      7000   0.55465656    -6.1120751      0.83032086    -5.2817542     -1.9050176      0.844        
      7100   0.56416224    -6.1254602      0.84455087    -5.2809094     -1.910259       0.844        
      7200   0.53705497    -6.0858004      0.80397129    -5.2818292     -1.7697512      0.844        
      7300   0.5567224     -6.1121864      0.83341344    -5.2787729     -1.8792803      0.844        
      7400   0.55095366    -6.1051812      0.82477763    -5.2804035     -1.811334       0.844        
      7500   0.53287638    -6.0795533      0.79771594    -5.2818374     -1.7147883      0.844        
      7600   0.5628639     -6.1238732      0.84260725    -5.2812659     -1.9069814      0.844        
      7700   0.56315939    -6.1240899      0.8430496     -5.2810403     -1.9971523      0.844        
      7800   0.54764415    -6.1028618      0.81982329    -5.2830385     -1.8786456      0.844        
      7900   0.5533702     -6.1100625      0.82839519    -5.2816673     -1.8173253      0.844        
      8000   0.54604889    -6.1006524      0.81743519    -5.2832172     -1.8543908      0.844        
      8100   0.53989144    -6.0892136      0.80821749    -5.2809961     -1.7816641      0.844        
      8200   0.55819733    -6.115827       0.83562141    -5.2802056     -1.8976386      0.844        
      8300   0.55691187    -6.1153739      0.83369707    -5.2816769     -1.922571       0.844        
      8400   0.54787729    -6.1041425      0.8201723     -5.2839702     -1.8080123      0.844        
      8500   0.55746604    -6.1168541      0.83452666    -5.2823274     -1.8951331      0.844        
      8600   0.55843546    -6.1194073      0.83597789    -5.2834294     -1.8784426      0.844        
      8700   0.56814387    -6.1314951      0.85051138    -5.2809838     -1.9704583      0.844        
      8800   0.53451216    -6.081699       0.8001647     -5.2815343     -1.6526951      0.844        
      8900   0.54216069    -6.093109       0.81161455    -5.2814945     -1.7818488      0.844        
      9000   0.5408322     -6.0922809      0.8096258     -5.2826551     -1.7684962      0.844        
      9100   0.56937124    -6.1359938      0.85234875    -5.283645      -1.9498212      0.844        
      9200   0.54986297    -6.1070553      0.82314487    -5.2839104     -1.7445614      0.844        
      9300   0.52900738    -6.0734639      0.79192406    -5.2815398     -1.6738718      0.844        
      9400   0.53069545    -6.0787928      0.79445109    -5.2843417     -1.6572481      0.844        
      9500   0.53193295    -6.0777571      0.79630363    -5.2814535     -1.6861291      0.844        
      9600   0.54331359    -6.0967381      0.81334044    -5.2833977     -1.8534691      0.844        
      9700   0.56843529    -6.1320858      0.85094763    -5.2811382     -1.9940724      0.844        
      9800   0.54879987    -6.1032759      0.8215534     -5.2817225     -1.7865769      0.844        
      9900   0.5333504     -6.0830897      0.79842555    -5.2846642     -1.7556265      0.844        
     10000   0.581641      -6.1539117      0.87071657    -5.2831951     -2.0559692      0.844        
Loop time of 3.28556 on 1 procs for 10000 steps with 500 atoms

Performance: 1314842.959 tau/day, 3043.618 timesteps/s, 1.522 Matom-step/s
96.5% CPU use with 1 MPI tasks x 1 OpenMP threads

MPI task timing breakdown:
Section |  min time  |  avg time  |  max time  |%varavg| %total
---------------------------------------------------------------
Pair    | 2.5631     | 2.5631     | 2.5631     |   0.0 | 78.01
Neigh   | 0.47547    | 0.47547    | 0.47547    |   0.0 | 14.47
Comm    | 0.099647   | 0.099647   | 0.099647   |   0.0 |  3.03
Output  | 0.081298   | 0.081298   | 0.081298   |   0.0 |  2.47
Modify  | 0.042392   | 0.042392   | 0.042392   |   0.0 |  1.29
Other   |            | 0.02361    |            |       |  0.72

Nlocal:            500 ave         500 max         500 min
Histogram: 1 0 0 0 0 0 0 0 0 0
Nghost:           1947 ave        1947 max        1947 min
Histogram: 1 0 0 0 0 0 0 0 0 0
Neighs:          18839 ave       18839 max       18839 min
Histogram: 1 0 0 0 0 0 0 0 0 0

Total # of neighbors = 18839
Ave neighs/atom = 37.678
Neighbor list builds = 500
Dangerous builds not checked
Total wall time: 0:00:03
