LAMMPS (7 Feb 2024 - Update 1)
OMP_NUM_THREADS environment is not set. Defaulting to 1 thread. (src/comm.cpp:98)
  using 1 OpenMP thread(s) per MPI task
Lattice spacing in x,y,z = 3.615 3.615 3.615
Created orthogonal box = (0 0 0) to (14.46 14.46 14.46)
  1 by 1 by 1 MPI processor grid
Created 256 atoms
  using lattice units in orthogonal box = (0 0 0) to (14.46 14.46 14.46)
  create_atoms CPU = 0.001 seconds
Generated 0 of 0 mixed pair_coeff terms from geometric mixing rule
Neighbor list info ...
  update: every = 1 steps, delay = 0 steps, check = yes
  max neighbors/atom: 2000, page size: 100000
  master list distance cutoff = 10
  ghost atom cutoff = 10
  binsize = 5, bins = 3 3 3
  1 neighbor lists, perpetual/occasional/extra = 1 0 0
  (1) pair lj/cut, perpetual
      attributes: half, newton on
      pair build: half/bin/atomonly/newton
      stencil: half/bin/3d
      bin: standard
Setting up Verlet run ...
  Unit style    : metal
  Current step  : 0
  Time step     : 0.001
Per MPI rank memory allocation (min/avg/max) = 3.219 | 3.219 | 3.219 Mbytes
   Step          Temp          PotEng         KinEng         TotEng         Press          Volume        Density    
         0   300           -869.98254      9.8884011     -860.09414     -236646.43      3023.4645      8.9345434    
       100   166.85637     -864.6185       5.4998092     -859.11869     -221892.22      3023.4645      8.9345434    
       200   187.88986     -863.33402      6.1931009     -857.14092     -217400.98      3023.4645      8.9345434    
       300   258.44439     -863.30346      8.5186725     -854.78479     -216661.29      3023.4645      8.9345434    
       400   224.71304     -859.96176      7.4068421     -852.55492     -207223.48      3023.4645      8.9345434    
       500   292.33801     -859.97123      9.6358518     -850.33538     -206243.36      3023.4645      8.9345434    
       600   331.44086     -860.12607      10.924734     -849.20134     -205931.17      3023.4645      8.9345434    
       700   284.12034     -858.79892      9.3649862     -849.43393     -202564.26      3023.4645      8.9345434    
       800   322.73431     -861.34751      10.637754     -850.70976     -209711.48      3023.4645      8.9345434    
       900   317.61529     -862.00972      10.469025     -851.54069     -211718.44      3023.4645      8.9345434    
      1000   250.46144     -859.87015      8.2555439     -851.6146      -206133.71      3023.4645      8.9345434    
      1100   322.07122     -861.25128      10.615898     -850.63538     -209782.55      3023.4645      8.9345434    
      1200   322.41131     -860.41131      10.627108     -849.7842      -207092.76      3023.4645      8.9345434    
      1300   252.81769     -858.13372      8.3332092     -849.80051     -200869.79      3023.4645      8.9345434    
      1400   317.12413     -860.85816      10.452835     -850.40533     -208329.21      3023.4645      8.9345434    
      1500   270.01022     -860.29531      8.899898      -851.39541     -207146.91      3023.4645      8.9345434    
      1600   286.04915     -860.84554      9.4285624     -851.41698     -208795.39      3023.4645      8.9345434    
      1700   322.89998     -861.38872      10.643215     -850.74551     -210020.38      3023.4645      8.9345434    
      1800   310.78928     -860.17061      10.24403      -849.92658     -206310.67      3023.4645      8.9345434    
      1900   303.473       -859.85466      10.002876     -849.85178     -205332.74      3023.4645      8.9345434    
      2000   323.86707     -861.33938      10.675092     -850.66428     -209774.02      3023.4645      8.9345434    
      2100   300.31254     -861.40554      9.8987028     -851.50684     -210260.34      3023.4645      8.9345434    
      2200   267.10588     -860.20818      8.8041668     -851.40401     -207082.26      3023.4645      8.9345434    
      2300   303.83883     -860.86177      10.014934     -850.84683     -208637.07      3023.4645      8.9345434    
      2400   288.1393      -860.10511      9.4974566     -850.60765     -206528.52      3023.4645      8.9345434    
      2500   304.37992     -860.58168      10.032769     -850.54891     -207628.63      3023.4645      8.9345434    
      2600   305.97027     -860.55227      10.085189     -850.46708     -207678.75      3023.4645      8.9345434    
      2700   311.96395     -861.20479      10.282749     -850.92204     -209630.48      3023.4645      8.9345434    
      2800   298.29554     -861.23773      9.8322198     -851.40551     -209987.61      3023.4645      8.9345434    
      2900   276.92095     -860.47989      9.1276848     -851.35221     -207687.3       3023.4645      8.9345434    
      3000   287.43664     -859.81665      9.4742961     -850.34235     -205715.51      3023.4645      8.9345434    
      3100   317.57208     -860.33111      10.4676       -849.86351     -206898.36      3023.4645      8.9345434    
      3200   307.17577     -860.33837      10.124924     -850.21345     -206832.83      3023.4645      8.9345434    
      3300   296.74252     -860.63027      9.78103       -850.84924     -208028.18      3023.4645      8.9345434    
      3400   290.22443     -861.43242      9.5661853     -851.86623     -210537.38      3023.4645      8.9345434    
      3500   250.82774     -861.48225      8.2676176     -853.21463     -211105.6       3023.4645      8.9345434    
      3600   269.0316      -861.38631      8.8676411     -852.51866     -210545.33      3023.4645      8.9345434    
      3700   291.54555     -861.06268      9.6097312     -851.45295     -209159.76      3023.4645      8.9345434    
      3800   283.10171     -859.92757      9.3314109     -850.59616     -205825.57      3023.4645      8.9345434    
      3900   318.69858     -860.54422      10.504731     -850.03949     -207414.2       3023.4645      8.9345434    
      4000   289.64427     -859.56753      9.5470624     -850.02047     -205008.21      3023.4645      8.9345434    
      4100   295.03361     -860.70383      9.7247022     -850.97913     -208258.29      3023.4645      8.9345434    
      4200   279.67703     -860.91691      9.218529      -851.69838     -209212.75      3023.4645      8.9345434    
      4300   313.26429     -861.72546      10.32561      -851.39985     -211068.54      3023.4645      8.9345434    
      4400   298.91477     -860.70449      9.8526304     -850.85186     -208143.52      3023.4645      8.9345434    
      4500   305.65222     -860.6728       10.074706     -850.5981      -208125.72      3023.4645      8.9345434    
      4600   314.16759     -860.7722       10.355384     -850.41681     -208236.79      3023.4645      8.9345434    
      4700   303.1175      -860.39118      9.991158      -850.40002     -207535.18      3023.4645      8.9345434    
      4800   289.33598     -860.34329      9.5369007     -850.80639     -207221.54      3023.4645      8.9345434    
      4900   277.69483     -860.49253      9.1531929     -851.33933     -207686.72      3023.4645      8.9345434    
      5000   272.15881     -860.37046      8.9707182     -851.39974     -207575.45      3023.4645      8.9345434    
Loop time of 2.68758 on 1 procs for 5000 steps with 256 atoms

Performance: 160.739 ns/day, 0.149 hours/ns, 1860.407 timesteps/s, 476.264 katom-step/s
96.4% CPU use with 1 MPI tasks x 1 OpenMP threads

MPI task timing breakdown:
Section |  min time  |  avg time  |  max time  |%varavg| %total
---------------------------------------------------------------
Pair    | 2.5858     | 2.5858     | 2.5858     |   0.0 | 96.21
Neigh   | 0          | 0          | 0          |   0.0 |  0.00
Comm    | 0.061784   | 0.061784   | 0.061784   |   0.0 |  2.30
Output  | 0.0013576  | 0.0013576  | 0.0013576  |   0.0 |  0.05
Modify  | 0.025525   | 0.025525   | 0.025525   |   0.0 |  0.95
Other   |            | 0.01315    |            |       |  0.49

Nlocal:            256 ave         256 max         256 min
Histogram: 1 0 0 0 0 0 0 0 0 0
Nghost:           3173 ave        3173 max        3173 min
Histogram: 1 0 0 0 0 0 0 0 0 0
Neighs:          47104 ave       47104 max       47104 min
Histogram: 1 0 0 0 0 0 0 0 0 0

Total # of neighbors = 47104
Ave neighs/atom = 184
Neighbor list builds = 0
Dangerous builds = 0
Total wall time: 0:00:02
