LAMMPS (7 Feb 2024 - Update 1)
OMP_NUM_THREADS environment is not set. Defaulting to 1 thread. (src/comm.cpp:98)
  using 1 OpenMP thread(s) per MPI task
Lattice spacing in x,y,z = 3.615 3.615 3.615
Created orthogonal box = (0 0 0) to (14.46 14.46 14.46)
  1 by 1 by 1 MPI processor grid
Created 256 atoms
  using lattice units in orthogonal box = (0 0 0) to (14.46 14.46 14.46)
  create_atoms CPU = 0.001 seconds
Reading eam potential file Cu_u3.eam with DATE: 2007-06-11
Neighbor list info ...
  update: every = 1 steps, delay = 0 steps, check = yes
  max neighbors/atom: 2000, page size: 100000
  master list distance cutoff = 6.95
  ghost atom cutoff = 6.95
  binsize = 3.475, bins = 5 5 5
  1 neighbor lists, perpetual/occasional/extra = 1 0 0
  (1) pair eam, perpetual
      attributes: half, newton on
      pair build: half/bin/atomonly/newton
      stencil: half/bin/3d
      bin: standard
Setting up Verlet run ...
  Unit style    : metal
  Current step  : 0
  Time step     : 0.001
Per MPI rank memory allocation (min/avg/max) = 3.369 | 3.369 | 3.369 Mbytes
   Step          Temp          PotEng         KinEng         TotEng         Press          Volume        Density    
         0   300           -906.24         9.8884011     -896.3516       3493.3076      3023.4645      8.9351058    
       100   148.81442     -900.39876      4.9051222     -895.49364      11425.263      3023.4645      8.9351058    
       200   198.22834     -899.99084      6.533871      -893.45697      12147.501      3023.4645      8.9351058    
       300   229.96513     -898.57891      7.5799583     -890.99895      15189.417      3023.4645      8.9351058    
       400   241.46146     -896.50152      7.9588925     -888.54263      18209.404      3023.4645      8.9351058    
       500   328.018       -897.08199      10.811912     -886.27008      18687.621      3023.4645      8.9351058    
       600   344.63651     -896.4691       11.35968      -885.10942      19961.471      3023.4645      8.9351058    
       700   346.80481     -896.54266      11.43115      -885.11151      19330.612      3023.4645      8.9351058    
       800   258.35921     -894.96367      8.515865      -886.4478       21070.088      3023.4645      8.9351058    
       900   298.05528     -897.03897      9.8243005     -887.21467      17982.347      3023.4645      8.9351058    
      1000   254.52369     -895.83875      8.3894411     -887.44931      19579.376      3023.4645      8.9351058    
      1100   325.254       -897.42394      10.720807     -886.70313      17846.845      3023.4645      8.9351058    
      1200   310.30948     -896.17611      10.228215     -885.9479       19466.506      3023.4645      8.9351058    
      1300   307.43914     -895.54507      10.133605     -885.41147      20727.565      3023.4645      8.9351058    
      1400   283.82157     -895.40258      9.3551383     -886.04744      20753.131      3023.4645      8.9351058    
      1500   258.20453     -895.49689      8.5107664     -886.98613      19814.67       3023.4645      8.9351058    
      1600   297.2447      -896.76291      9.7975828     -886.96532      18769.139      3023.4645      8.9351058    
      1700   261.52488     -895.48133      8.6202097     -886.86112      20320.692      3023.4645      8.9351058    
      1800   322.39322     -896.75048      10.626511     -886.12396      18900.343      3023.4645      8.9351058    
      1900   310.09464     -896.00322      10.221134     -885.78209      20355.052      3023.4645      8.9351058    
      2000   301.08596     -895.92414      9.9241958     -885.99994      20112.224      3023.4645      8.9351058    
      2100   282.85377     -896.26491      9.3232385     -886.94167      19343.136      3023.4645      8.9351058    
      2200   292.94591     -897.13154      9.6558889     -887.47565      18088.386      3023.4645      8.9351058    
      2300   283.91019     -896.35169      9.3580596     -886.99363      19450.578      3023.4645      8.9351058    
      2400   299.99589     -896.12392      9.8882655     -886.23565      19785.238      3023.4645      8.9351058    
      2500   296.23607     -895.80828      9.7643368     -886.04394      20261.032      3023.4645      8.9351058    
      2600   292.09068     -895.8591       9.6276992     -886.23141      20183.134      3023.4645      8.9351058    
      2700   278.86139     -895.98521      9.1916441     -886.79357      19835.446      3023.4645      8.9351058    
      2800   309.32204     -897.4117       10.195668     -887.21603      17773.242      3023.4645      8.9351058    
      2900   305.25883     -897.07695      10.061739     -887.01521      18277.612      3023.4645      8.9351058    
      3000   305.23599     -895.76407      10.060986     -885.70308      20546.256      3023.4645      8.9351058    
      3100   311.13768     -895.73677      10.255514     -885.48126      20396.94       3023.4645      8.9351058    
      3200   299.82041     -896.01063      9.8824816     -886.12815      19905.935      3023.4645      8.9351058    
      3300   315.89498     -897.44032      10.412321     -887.028        17980.029      3023.4645      8.9351058    
      3400   306.97936     -897.33592      10.11845      -887.21747      18057.387      3023.4645      8.9351058    
      3500   286.05748     -896.37481      9.4288371     -886.94597      19189.809      3023.4645      8.9351058    
      3600   294.98811     -896.09949      9.7232026     -886.37628      19905.239      3023.4645      8.9351058    
      3700   312.23108     -896.29903      10.291554     -886.00748      19691.356      3023.4645      8.9351058    
      3800   314.04564     -896.36224      10.351364     -886.01088      19407.393      3023.4645      8.9351058    
      3900   308.13902     -897.00332      10.156674     -886.84665      18569.288      3023.4645      8.9351058    
      4000   287.22298     -897.0466       9.4672533     -887.57935      18203.645      3023.4645      8.9351058    
      4100   296.55338     -897.01456      9.774796      -887.23976      18132.665      3023.4645      8.9351058    
      4200   286.331       -895.57693      9.4378527     -886.13908      20368.48       3023.4645      8.9351058    
      4300   310.76792     -896.14456      10.243326     -885.90124      19565.164      3023.4645      8.9351058    
      4400   323.51912     -896.89972      10.663623     -886.23609      18644.526      3023.4645      8.9351058    
      4500   301.90895     -896.61965      9.9513226     -886.66833      18941.435      3023.4645      8.9351058    
      4600   286.62406     -896.49148      9.4475123     -887.04397      18802.973      3023.4645      8.9351058    
      4700   268.50655     -896.65141      8.8503349     -887.80107      18475.24       3023.4645      8.9351058    
      4800   274.05142     -896.70459      9.0331011     -887.67149      18314.093      3023.4645      8.9351058    
      4900   297.95605     -896.39867      9.8210296     -886.57764      19119.992      3023.4645      8.9351058    
      5000   317.35798     -896.43598      10.460543     -885.97544      19388.082      3023.4645      8.9351058    
Loop time of 1.86468 on 1 procs for 5000 steps with 256 atoms

Performance: 231.676 ns/day, 0.104 hours/ns, 2681.431 timesteps/s, 686.446 katom-step/s
96.6% CPU use with 1 MPI tasks x 1 OpenMP threads

MPI task timing breakdown:
Section |  min time  |  avg time  |  max time  |%varavg| %total
---------------------------------------------------------------
Pair    | 1.8038     | 1.8038     | 1.8038     |   0.0 | 96.74
Neigh   | 0          | 0          | 0          |   0.0 |  0.00
Comm    | 0.028349   | 0.028349   | 0.028349   |   0.0 |  1.52
Output  | 0.001361   | 0.001361   | 0.001361   |   0.0 |  0.07
Modify  | 0.023      | 0.023      | 0.023      |   0.0 |  1.23
Other   |            | 0.008122   |            |       |  0.44

Nlocal:            256 ave         256 max         256 min
Histogram: 1 0 0 0 0 0 0 0 0 0
Nghost:           1431 ave        1431 max        1431 min
Histogram: 1 0 0 0 0 0 0 0 0 0
Neighs:          17152 ave       17152 max       17152 min
Histogram: 1 0 0 0 0 0 0 0 0 0

Total # of neighbors = 17152
Ave neighs/atom = 67
Neighbor list builds = 0
Dangerous builds = 0
Total wall time: 0:00:01
