LAMMPS (7 Feb 2024 - Update 1)
OMP_NUM_THREADS environment is not set. Defaulting to 1 thread. (src/comm.cpp:98)
  using 1 OpenMP thread(s) per MPI task
units           real
atom_style      atomic
boundary        p p p
lattice         fcc 5.269				#lattice constant = 5.269 Å
Lattice spacing in x,y,z = 5.269 5.269 5.269
region          box block 0 5 0 5 0 5
create_box      1 box
Created orthogonal box = (0 0 0) to (26.345 26.345 26.345)
  1 by 1 by 1 MPI processor grid
create_atoms    1 box
Created 500 atoms
  using lattice units in orthogonal box = (0 0 0) to (26.345 26.345 26.345)
  create_atoms CPU = 0.001 seconds
mass            1 39.948				#mass = 39.948 g/mol (argon)
pair_style      lj/cut 8.51				#cutoff = 2.5 × 3.405 = 8.51 Å
pair_coeff      1 1 0.238 3.405 8.51	#ε = 0.238 kcal/mol,  σ = 3.405 Å
velocity        all create 85.0 87287 dist gaussian
fix             1 all nve
timestep        2.0						#2 fs.
thermo          100
thermo_style    custom step temp pe ke etotal press density
run             5000
Generated 0 of 0 mixed pair_coeff terms from geometric mixing rule
Neighbor list info ...
  update: every = 1 steps, delay = 0 steps, check = yes
  max neighbors/atom: 2000, page size: 100000
  master list distance cutoff = 10.51
  ghost atom cutoff = 10.51
  binsize = 5.255, bins = 6 6 6
  1 neighbor lists, perpetual/occasional/extra = 1 0 0
  (1) pair lj/cut, perpetual
      attributes: half, newton on
      pair build: half/bin/atomonly/newton
      stencil: half/bin/3d
      bin: standard
Per MPI rank memory allocation (min/avg/max) = 3.144 | 3.144 | 3.144 Mbytes
   Step          Temp          PotEng         KinEng         TotEng         Press         Density    
         0   85            -963.78596      126.43106     -837.3549       439.3635       1.8139257    
       100   30.216898     -877.09517      44.945346     -832.14983      1875.2712      1.8139257    
       200   41.028706     -893.21496      61.027091     -832.18787      1609.2773      1.8139257    
       300   42.172173     -895.6394       62.727911     -832.91149      1568.3402      1.8139257    
       400   44.47106      -899.02841      66.147331     -832.88108      1503.752       1.8139257    
       500   43.824416     -898.15235      65.185498     -832.96685      1519.2764      1.8139257    
       600   43.870702     -898.43883      65.254344     -833.18449      1524.6015      1.8139257    
       700   42.596236     -896.51166      63.358674     -833.15298      1558.6919      1.8139257    
       800   44.00495      -898.73926      65.454028     -833.28524      1516.389       1.8139257    
       900   39.802482     -892.17296      59.203176     -832.96978      1626.6997      1.8139257    
      1000   46.771541     -903.02185      69.569122     -833.45273      1451.9126      1.8139257    
      1100   42.682484     -896.32475      63.48696      -832.83779      1549.6375      1.8139257    
      1200   42.650625     -896.41699      63.439573     -832.97742      1558.422       1.8139257    
      1300   43.455973     -898.20608      64.637466     -833.56861      1528.2564      1.8139257    
      1400   43.459877     -898.06408      64.643273     -833.42081      1531.4013      1.8139257    
      1500   42.087327     -895.58696      62.601709     -832.98525      1574.9246      1.8139257    
      1600   44.940785     -900.0376       66.846012     -833.19158      1490.7726      1.8139257    
      1700   42.181991     -895.71571      62.742515     -832.97319      1565.9479      1.8139257    
      1800   42.353458     -895.95125      62.997559     -832.95369      1561.7814      1.8139257    
      1900   42.702395     -896.64147      63.516576     -833.12489      1554.7894      1.8139257    
      2000   43.365145     -897.70913      64.502367     -833.20676      1535.9618      1.8139257    
      2100   44.955362     -900.3542       66.867694     -833.4865       1494.6015      1.8139257    
      2200   40.779165     -893.7958       60.655917     -833.13988      1604.8828      1.8139257    
      2300   43.412799     -897.67841      64.573249     -833.10516      1538.9748      1.8139257    
      2400   45.039642     -900.23852      66.993054     -833.24547      1493.9168      1.8139257    
      2500   43.007085     -897.22645      63.96978      -833.25667      1546.6513      1.8139257    
      2600   41.722077     -895.22932      62.058428     -833.17089      1579.455       1.8139257    
      2700   43.502106     -898.0095       64.706086     -833.30341      1530.7651      1.8139257    
      2800   45.111292     -900.38757      67.099628     -833.28795      1490.0823      1.8139257    
      2900   42.240946     -895.77939      62.830206     -832.94918      1564.2042      1.8139257    
      3000   42.046953     -895.15232      62.541656     -832.61066      1570.3825      1.8139257    
      3100   42.945166     -896.9668       63.877681     -833.08912      1546.8991      1.8139257    
      3200   42.781256     -896.58318      63.633876     -832.94931      1551.5341      1.8139257    
      3300   44.724024     -899.80379      66.523596     -833.28019      1501.5622      1.8139257    
      3400   42.664338     -896.56487      63.459969     -833.1049       1553.212       1.8139257    
      3500   43.612448     -897.97132      64.870212     -833.1011       1527.8318      1.8139257    
      3600   42.41968      -896.23591      63.096059     -833.13985      1560.2893      1.8139257    
      3700   44.472987     -899.17778      66.150198     -833.02758      1510.8908      1.8139257    
      3800   43.068763     -897.05401      64.06152      -832.99249      1547.8808      1.8139257    
      3900   44.726775     -899.84301      66.527688     -833.31532      1497.637       1.8139257    
      4000   44.432048     -899.28767      66.089304     -833.19836      1504.794       1.8139257    
      4100   41.886001     -895.43033      62.302252     -833.12807      1575.1485      1.8139257    
      4200   44.130685     -898.60975      65.641049     -832.9687       1514.7006      1.8139257    
      4300   42.546165     -896.13624      63.284196     -832.85204      1561.4161      1.8139257    
      4400   42.030264     -895.56716      62.516832     -833.05032      1567.8617      1.8139257    
      4500   43.471781     -897.76961      64.66098      -833.10863      1538.0032      1.8139257    
      4600   42.962888     -896.98582      63.904039     -833.08178      1544.0434      1.8139257    
      4700   45.834535     -901.42071      68.175397     -833.24532      1473.0303      1.8139257    
      4800   43.286703     -897.67359      64.385691     -833.2879       1537.1485      1.8139257    
      4900   41.447828     -894.61916      61.650503     -832.96866      1586.0089      1.8139257    
      5000   44.166645     -898.92771      65.694538     -833.23317      1513.0774      1.8139257    
Loop time of 1.68504 on 1 procs for 5000 steps with 500 atoms

Performance: 512.748 ns/day, 0.047 hours/ns, 2967.294 timesteps/s, 1.484 Matom-step/s
96.6% CPU use with 1 MPI tasks x 1 OpenMP threads

MPI task timing breakdown:
Section |  min time  |  avg time  |  max time  |%varavg| %total
---------------------------------------------------------------
Pair    | 1.6054     | 1.6054     | 1.6054     |   0.0 | 95.28
Neigh   | 0          | 0          | 0          |   0.0 |  0.00
Comm    | 0.040531   | 0.040531   | 0.040531   |   0.0 |  2.41
Output  | 0.0044487  | 0.0044487  | 0.0044487  |   0.0 |  0.26
Modify  | 0.020668   | 0.020668   | 0.020668   |   0.0 |  1.23
Other   |            | 0.01397    |            |       |  0.83

Nlocal:            500 ave         500 max         500 min
Histogram: 1 0 0 0 0 0 0 0 0 0
Nghost:           1956 ave        1956 max        1956 min
Histogram: 1 0 0 0 0 0 0 0 0 0
Neighs:          33500 ave       33500 max       33500 min
Histogram: 1 0 0 0 0 0 0 0 0 0

Total # of neighbors = 33500
Ave neighs/atom = 67
Neighbor list builds = 0
Dangerous builds = 0
Total wall time: 0:00:01
