LAMMPS (7 Feb 2024 - Update 1)
OMP_NUM_THREADS environment is not set. Defaulting to 1 thread. (src/comm.cpp:98)
  using 1 OpenMP thread(s) per MPI task
Lattice spacing in x,y,z = 3.615 3.615 3.615
Created orthogonal box = (0 0 0) to (18.075 18.075 18.075)
  1 by 1 by 1 MPI processor grid
Created 500 atoms
  using lattice units in orthogonal box = (0 0 0) to (18.075 18.075 18.075)
  create_atoms CPU = 0.001 seconds
Reading eam potential file Cu_u3.eam with DATE: 2007-06-11
Neighbor list info ...
  update: every = 1 steps, delay = 0 steps, check = yes
  max neighbors/atom: 2000, page size: 100000
  master list distance cutoff = 6.95
  ghost atom cutoff = 6.95
  binsize = 3.475, bins = 6 6 6
  1 neighbor lists, perpetual/occasional/extra = 1 0 0
  (1) pair eam, perpetual
      attributes: half, newton on
      pair build: half/bin/atomonly/newton
      stencil: half/bin/3d
      bin: standard
Setting up cg style minimization ...
  Unit style    : metal
  Current step  : 0
Per MPI rank memory allocation (min/avg/max) = 4.519 | 4.519 | 4.519 Mbytes
   Step          Temp          E_pair         E_mol          TotEng         Press     
         0   0             -1770           0             -1770          -0.027860375  
         1   0             -1770           0             -1770          -0.027860375  
Loop time of 0.00212981 on 1 procs for 1 steps with 500 atoms

40.4% CPU use with 1 MPI tasks x 1 OpenMP threads

Minimization stats:
  Stopping criterion = energy tolerance
  Energy initial, next-to-last, final = 
     -1770.00000113836  -1770.00000113836  -1770.00000113836
  Force two-norm initial, final = 9.7910644e-14 8.9369105e-14
  Force max component initial, final = 6.1799524e-15 6.0090821e-15
  Final line search alpha, max atom move = 1 6.0090821e-15
  Iterations, force evaluations = 1 2

MPI task timing breakdown:
Section |  min time  |  avg time  |  max time  |%varavg| %total
---------------------------------------------------------------
Pair    | 0.0020769  | 0.0020769  | 0.0020769  |   0.0 | 97.51
Neigh   | 0          | 0          | 0          |   0.0 |  0.00
Comm    | 2.1766e-05 | 2.1766e-05 | 2.1766e-05 |   0.0 |  1.02
Output  | 0          | 0          | 0          |   0.0 |  0.00
Modify  | 0          | 0          | 0          |   0.0 |  0.00
Other   |            | 3.117e-05  |            |       |  1.46

Nlocal:            500 ave         500 max         500 min
Histogram: 1 0 0 0 0 0 0 0 0 0
Nghost:           1956 ave        1956 max        1956 min
Histogram: 1 0 0 0 0 0 0 0 0 0
Neighs:          33500 ave       33500 max       33500 min
Histogram: 1 0 0 0 0 0 0 0 0 0

Total # of neighbors = 33500
Ave neighs/atom = 67
Neighbor list builds = 0
Dangerous builds = 0
Setting up Verlet run ...
  Unit style    : metal
  Current step  : 0
  Time step     : 0.001
Per MPI rank memory allocation (min/avg/max) = 3.394 | 3.394 | 3.394 Mbytes
   Step          Temp          PotEng         KinEng         Press          Volume           Lx          Density    
         0   100           -1770           6.4500812      1166.6457      5905.2042      18.075         8.9351058    
       500   85.52712      -1762.7182      5.5165687     -4868.1648      5956.5093      18.127195      8.8581452    
      1000   136.59934     -1763.6043      8.8107686      1241.7521      5929.8331      18.100094      8.8979949    
      1500   125.73616     -1761.0534      8.1100847     -3584.797       5959.6061      18.130336      8.8535422    
      2000   155.31077     -1761.6714      10.017671     -831.34943      5946.5194      18.117055      8.8730265    
      2500   136.04735     -1759.4704      8.7751643     -2098.8323      5959.2205      18.129945      8.8541152    
      3000   176.67126     -1760.467       11.39544       4103.525       5931.1833      18.101467      8.8959693    
      3500   159.60256     -1757.4272      10.294495     -2847.6093      5970.7944      18.141675      8.8369521    
      4000   178.39197     -1759.3859      11.506427     -468.38494      5954.7184      18.125378      8.8608093    
      4500   192.40913     -1757.5945      12.410545      5371.2765      5936.4837      18.106858      8.8880265    
      5000   195.9015      -1756.6846      12.635806     -4081.2808      5980.4177      18.151416      8.8227323    
      5500   215.87908     -1756.1555      13.924376     -1325.4499      5971.7746      18.142667      8.8355016    
      6000   227.93362     -1755.2608      14.701904      570.34654      5967.1881      18.138021      8.8422927    
      6500   238.38649     -1754.4993      15.376122     -1343.3553      5978.9654      18.149946      8.8248754    
      7000   240.98948     -1753.469       15.544017     -2689.8492      5989.4772      18.160577      8.8093873    
      7500   259.03658     -1753.3918      16.70807       3105.6155      5964.2454      18.135039      8.8466554    
      8000   256.56722     -1752.8505      16.548794     -1392.6256      5986.6736      18.157743      8.8135128    
      8500   270.86224     -1752.2452      17.470834     -2971.1459      5995.8664      18.167032      8.8000001    
      9000   273.02512     -1752.7861      17.610342      4433.0751      5961.723       18.132482      8.8503985    
      9500   281.30241     -1750.2285      18.144234     -1555.2321      5997.6946      18.168878      8.7973175    
     10000   288.63647     -1750.7225      18.617287     -2320.497       5999.2596      18.170458      8.7950227    
Loop time of 6.91161 on 1 procs for 10000 steps with 500 atoms

Performance: 125.007 ns/day, 0.192 hours/ns, 1446.841 timesteps/s, 723.420 katom-step/s
96.4% CPU use with 1 MPI tasks x 1 OpenMP threads

MPI task timing breakdown:
Section |  min time  |  avg time  |  max time  |%varavg| %total
---------------------------------------------------------------
Pair    | 6.6153     | 6.6153     | 6.6153     |   0.0 | 95.71
Neigh   | 0          | 0          | 0          |   0.0 |  0.00
Comm    | 0.076814   | 0.076814   | 0.076814   |   0.0 |  1.11
Output  | 0.00057205 | 0.00057205 | 0.00057205 |   0.0 |  0.01
Modify  | 0.19326    | 0.19326    | 0.19326    |   0.0 |  2.80
Other   |            | 0.02569    |            |       |  0.37

Nlocal:            500 ave         500 max         500 min
Histogram: 1 0 0 0 0 0 0 0 0 0
Nghost:           1956 ave        1956 max        1956 min
Histogram: 1 0 0 0 0 0 0 0 0 0
Neighs:          33500 ave       33500 max       33500 min
Histogram: 1 0 0 0 0 0 0 0 0 0

Total # of neighbors = 33500
Ave neighs/atom = 67
Neighbor list builds = 0
Dangerous builds = 0
T=100K vol=5999.2595958114889072 lx=18.170458451075280237 density=8.7950226812381071539 pe=-1750.7224762209141318
Setting up Verlet run ...
  Unit style    : metal
  Current step  : 10000
  Time step     : 0.001
Per MPI rank memory allocation (min/avg/max) = 3.394 | 3.394 | 3.394 Mbytes
   Step          Temp          PotEng         KinEng         Press          Volume           Lx          Density    
     10000   288.63647     -1750.7225      18.617287     -2320.497       5999.2596      18.170458      8.7950227    
     10500   308.41141     -1749.8109      19.892786      323.70843      5992.8505      18.163986      8.8044286    
     11000   316.46693     -1749.4739      20.412374      485.67572      5993.5541      18.164696      8.8033949    
     11500   330.54346     -1748.3456      21.320322     -2656.9701      6012.7613      18.184079      8.7752734    
     12000   359.76166     -1746.2545      23.20492      -746.55191      6013.1429      18.184464      8.7747165    
     12500   355.00883     -1746.1681      22.898358      3342.4323      5994.5142      18.165666      8.801985     
     13000   355.74025     -1745.9631      22.945535     -1181.7196      6016.3612      18.187708      8.7700226    
     13500   360.92793     -1745.95        23.280145     -2246.4072      6020.4255      18.191802      8.7641021    
     14000   390.74325     -1745.0228      25.203257      5748.7437      5989.6238      18.160725      8.8091717    
     14500   401.06773     -1743.5591      25.869195     -4583.999       6042.0654      18.213573      8.7327133    
     15000   391.52198     -1744.3635      25.253486     -4546.127       6039.2583      18.210752      8.7367722    
     15500   418.27262     -1743.5736      26.978924      2758.8738      6010.352       18.18165       8.778791     
     16000   412.80483     -1741.188       26.626247     -1016.8854      6035.1009      18.206572      8.7427908    
     16500   404.40877     -1740.1474      26.084694      1671.2252      6027.0833      18.198506      8.754421     
     17000   442.92021     -1740.2568      28.568713      1273.1723      6030.3468      18.20179       8.7496832    
     17500   462.91024     -1739.5507      29.858086     -1804.6462      6047.3122      18.218843      8.7251365    
     18000   463.16107     -1739.4912      29.874265      211.91948      6038.4718      18.209961      8.7379102    
     18500   450.88861     -1738.4382      29.082682      840.46535      6039.6034      18.211098      8.736273     
     19000   466.29238     -1740.6527      30.076237      252.6464       6036.0289      18.207505      8.7414466    
     19500   516.97627     -1737.6494      33.345389     -3981.9196      6069.102       18.240699      8.6938108    
     20000   515.5419      -1737.0003      33.252872     -1030.0768      6057.3159      18.228884      8.7107268    
Loop time of 7.71957 on 1 procs for 10000 steps with 500 atoms

Performance: 111.923 ns/day, 0.214 hours/ns, 1295.410 timesteps/s, 647.705 katom-step/s
96.3% CPU use with 1 MPI tasks x 1 OpenMP threads

MPI task timing breakdown:
Section |  min time  |  avg time  |  max time  |%varavg| %total
---------------------------------------------------------------
Pair    | 7.4172     | 7.4172     | 7.4172     |   0.0 | 96.08
Neigh   | 0          | 0          | 0          |   0.0 |  0.00
Comm    | 0.077539   | 0.077539   | 0.077539   |   0.0 |  1.00
Output  | 0.00061058 | 0.00061058 | 0.00061058 |   0.0 |  0.01
Modify  | 0.1979     | 0.1979     | 0.1979     |   0.0 |  2.56
Other   |            | 0.02628    |            |       |  0.34

Nlocal:            500 ave         500 max         500 min
Histogram: 1 0 0 0 0 0 0 0 0 0
Nghost:           1956 ave        1956 max        1956 min
Histogram: 1 0 0 0 0 0 0 0 0 0
Neighs:          32437 ave       32437 max       32437 min
Histogram: 1 0 0 0 0 0 0 0 0 0

Total # of neighbors = 32437
Ave neighs/atom = 64.874
Neighbor list builds = 0
Dangerous builds = 0
Setting up Verlet run ...
  Unit style    : metal
  Current step  : 20000
  Time step     : 0.001
Per MPI rank memory allocation (min/avg/max) = 3.394 | 3.394 | 3.394 Mbytes
   Step          Temp          PotEng         KinEng         Press          Volume           Lx          Density    
     20000   515.5419      -1737.0003      33.252872     -1030.0768      6057.3159      18.228884      8.7107268    
     20500   290.4335      -1751.6331      18.733197     -6.6476693      5986.2016      18.157266      8.8142077    
     21000   301.15097     -1749.0431      19.424482     -368.89704      5998.5768      18.169769      8.7960238    
     21500   313.06624     -1749.584       20.193027      845.12033      5991.297       18.162416      8.8067115    
     22000   279.8869      -1749.2109      18.052933      1543.7051      5988.3443      18.159432      8.8110539    
     22500   297.03923     -1750.9863      19.159272     -3637.3107      6005.1962      18.17645       8.7863281    
     23000   307.3995      -1750.1482      19.827517      2355.9705      5982.7344      18.153759      8.8193159    
     23500   302.65027     -1749.3598      19.521188     -845.91685      5999.3634      18.170563      8.7948706    
     24000   293.91152     -1750.3135      18.957532     -2992.2708      6005.1326      18.176386      8.7864212    
     24500   286.77902     -1749.5632      18.49748       3941.2188      5976.3284      18.147278      8.8287692    
     25000   311.92341     -1749.5234      20.119313      2834.7543      5982.8588      18.153885      8.8191325    
     25500   312.2541      -1749.6388      20.140643     -6038.7765      6021.878       18.193265      8.7619882    
     26000   289.43163     -1749.0318      18.668575     -1177.7247      6001.5055      18.172726      8.7917314    
     26500   292.07678     -1751.5527      18.83919       4495.2535      5966.4411      18.137264      8.8433998    
     27000   301.804       -1751.0264      19.466603     -767.13603      5992.4726      18.163604      8.8049838    
     27500   306.87341     -1749.9083      19.793584     -2170.3412      6003.4415      18.17468       8.7888962    
     28000   304.31148     -1750.8999      19.628338      2095.3883      5980.1262      18.151121      8.8231623    
     28500   302.04217     -1750.6967      19.481965      466.23637      5987.6666      18.158747      8.8120512    
     29000   295.38255     -1750.0773      19.052414     -2838.5979      6005.1681      18.176422      8.7863692    
     29500   307.9031      -1748.9987      19.86          2083.4063      5987.3832      18.15846       8.8124682    
     30000   313.29539     -1749.3257      20.207807      2853.6012      5983.443       18.154476      8.8182714    
     30500   305.2126      -1751.0728      19.686461     -5298.7326      6012.4193      18.183735      8.7757726    
     31000   295.44034     -1749.7565      19.056142      785.33639      5990.483       18.161593      8.8079082    
     31500   286.2819      -1749.6255      18.465415      9641.2442      5950.9584      18.121562      8.8664079    
     32000   295.50481     -1750.5895      19.0603       -4571.6814      6011.0004      18.182304      8.777844     
     32500   310.67988     -1749.2724      20.039104     -3104.1114      6009.5729      18.180865      8.7799292    
     33000   320.57293     -1749.6783      20.677214      3484.6428      5978.9595      18.14994       8.824884     
     33500   313.66903     -1750.8549      20.231907     -2076.7895      6000.316       18.171525      8.7934743    
     34000   287.98332     -1749.9161      18.575158     -3909.3782      6009.4178      18.180708      8.7801557    
     34500   298.29769     -1749.3427      19.240443      3705.2315      5978.3699      18.149344      8.8257544    
     35000   293.65583     -1750.883       18.94104       1864.7312      5980.9749      18.15198       8.8219103    
     35500   280.37425     -1750.6869      18.084367     -3450.4446      6005.0096      18.176262      8.7866011    
     36000   304.33743     -1750.0924      19.630011      1637.8215      5985.3566      18.156411      8.815452     
     36500   301.07113     -1749.2395      19.419332      2128.5291      5985.6941      18.156753      8.814955     
     37000   307.98858     -1749.8793      19.865514     -2649.8318      6004.7014      18.175951      8.7870521    
     37500   296.98467     -1750.231       19.155753      168.02355      5991.3639      18.162484      8.8066132    
     38000   307.37626     -1751.1637      19.826019      434.12161      5987.4241      18.158502      8.8124081    
     38500   300.66151     -1749.8312      19.392912     -1469.8952      6000.0035      18.171209      8.7939323    
     39000   292.66287     -1748.7549      18.876993      1373.3128      5991.4187      18.162539      8.8065326    
     39500   290.44172     -1749.4502      18.733727     -553.26924      5995.8239      18.166989      8.8000624    
     40000   268.34562     -1750.3893      17.30851       2551.7596      5978.9437      18.149924      8.8249074    
     40500   291.96343     -1749.8016      18.831878     -451.77786      5994.9219      18.166078      8.8013865    
     41000   316.82053     -1750.183       20.435182     -1803.3348      6001.2648      18.172483      8.792084     
     41500   328.02308     -1749.3609      21.157755      2392.1095      5985.4729      18.156529      8.8152808    
     42000   288.003       -1749.1131      18.576428     -876.76861      5998.6905      18.169884      8.795857     
     42500   289.3583      -1750.0848      18.663845     -949.76545      5996.0175      18.167185      8.7997783    
     43000   288.9982      -1751.6885      18.640619      3899.1336      5968.5139      18.139365      8.8403286    
     43500   291.13232     -1749.7068      18.778271     -1522.6968      6000.6055      18.171817      8.79305      
     44000   291.51037     -1748.9317      18.802656     -2513.9865      6007.7584      18.179035      8.7825808    
     44500   320.00945     -1748.7795      20.640869      4410.1251      5978.3275      18.149301      8.8258169    
     45000   306.69141     -1749.7478      19.781845     -690.18156      5997.5437      18.168726      8.7975389    
     45500   270.01799     -1748.6315      17.41638      -3203.3238      6010.415       18.181714      8.778699     
     46000   281.50458     -1750.2038      18.157274      2804.6032      5978.1145      18.149085      8.8261314    
     46500   309.49559     -1750.67        19.962717      1119.2734      5985.8548      18.156915      8.8147184    
     47000   308.29259     -1748.4939      19.885122     -3348.5006      6013.5182      18.184842      8.7741689    
     47500   301.57137     -1749.9955      19.451598      1554.3657      5985.7346      18.156793      8.8148953    
     48000   288.84192     -1749.7149      18.630538      967.38515      5989.2814      18.160379      8.8096752    
     48500   312.55811     -1750.1165      20.160252     -1634.7286      6000.4348      18.171645      8.7933001    
     49000   308.45435     -1749.7215      19.895556     -209.73968      5994.7132      18.165867      8.8016928    
     49500   301.52845     -1749.4014      19.44883       2369.8074      5984.3135      18.155356      8.8169886    
     50000   300.2751      -1750.2078      19.367988     -2780.1484      6004.4452      18.175692      8.7874271    
     50500   271.3762      -1750.4194      17.503985     -780.96794      5993.4082      18.164549      8.8036093    
     51000   292.39244     -1749.6547      18.85955       6760.1072      5963.6147      18.1344        8.8475911    
     51500   301.04901     -1749.61        19.417905     -1498.3372      6001.4464      18.172666      8.791818     
     52000   319.33556     -1749.5259      20.597403     -4391.852       6014.8639      18.186199      8.7722059    
     52500   313.23685     -1749.914       20.204031      3939.8764      5975.7098      18.146651      8.8296832    
     53000   298.58928     -1749.9028      19.259251      520.28311      5990.338       18.161447      8.8081214    
     53500   288.95283     -1749.5247      18.637692     -2225.651       6003.9262      18.175169      8.7881866    
     54000   290.54201     -1751.4725      18.740196      1946.0105      5978.4127      18.149387      8.8256912    
     54500   288.79157     -1749.478       18.627291      1432.8066      5988.0438      18.159128      8.811496     
     55000   322.72657     -1750.2306      20.816126     -1909.5715      6001.4225      18.172642      8.791853     
     55500   294.52193     -1749.4415      18.996903      1311.2291      5989.1488      18.160245      8.8098703    
     56000   294.01212     -1750.8235      18.964021     -353.46574      5990.7905      18.161904      8.8074561    
     56500   304.9467      -1750.6196      19.66931      -1267.3155      5996.1338      18.167302      8.7996075    
     57000   310.35283     -1750.059       20.018009     -298.49398      5993.9628      18.165109      8.8027947    
     57500   309.4812      -1749.7392      19.961789      66.524187      5993.8282      18.164973      8.8029924    
     58000   295.70326     -1749.3305      19.0731        61.103907      5995.1277      18.166286      8.8010842    
     58500   301.30116     -1751.5377      19.434169     -444.71223      5988.7001      18.159791      8.8105304    
     59000   301.01131     -1749.9806      19.415474      403.57489      5990.9722      18.162088      8.807189     
     59500   297.28258     -1749.2417      19.174968      1010.3351      5991.0866      18.162203      8.8070208    
     60000   291.25563     -1750.4395      18.786225      510.41081      5988.4225      18.159511      8.8109388    
     60500   299.57143     -1750.5592      19.3226       -1202.0374      5996.4766      18.167648      8.7991044    
     61000   309.11764     -1749.6564      19.938339      1630.0693      5987.4446      18.158522      8.8123779    
     61500   287.82845     -1749.4428      18.565169     -1560.2071      6000.8613      18.172075      8.7926751    
     62000   312.00144     -1750.373       20.124346     -3676.5517      6007.8287      18.179106      8.7824781    
     62500   303.4163      -1750.7058      19.570598      5554.7985      5965.5409      18.136352      8.8447343    
     63000   275.9932      -1751.2032      17.801786     -821.37775      5991.1413      18.162259      8.8069404    
     63500   306.81436     -1749.6128      19.789776     -3949.3972      6012.2722      18.183586      8.7759873    
     64000   312.33323     -1749.5783      20.145747      3284.7395      5980.0313      18.151025      8.8233023    
     64500   291.85578     -1750.0213      18.824935      874.12942      5987.7923      18.158874      8.8118661    
     65000   274.45898     -1750.7263      17.702827     -1735.869       5995.5238      18.166686      8.8005028    
     65500   304.42134     -1749.2799      19.635424      890.14767      5991.656       18.162779      8.8061838    
     66000   298.5489      -1750.2876      19.256647      1376.4589      5985.1262      18.156178      8.8157914    
     66500   305.84299     -1751.5437      19.727122     -1136.5728      5992.6153      18.163748      8.8047742    
     67000   297.69318     -1749.9193      19.201452     -2067.3651      6002.145       18.173371      8.7907947    
     67500   296.49514     -1749.788       19.124178      1654.0878      5986.0431      18.157105      8.8144411    
     68000   303.89551     -1749.7887      19.601508      992.84953      5989.2151      18.160312      8.8097727    
     68500   284.73962     -1749.0954      18.365937     -7676.151       6030.7007      18.202146      8.7491697    
     69000   295.19975     -1751.6301      19.040624      5289.8339      5963.5919      18.134377      8.8476248    
     69500   302.93682     -1750.0458      19.539671      4084.9979      5975.2478      18.146184      8.8303658    
     70000   299.43052     -1749.5241      19.313512     -5551.8046      6020.0214      18.191395      8.7646905    
Loop time of 39.8182 on 1 procs for 50000 steps with 500 atoms

Performance: 108.493 ns/day, 0.221 hours/ns, 1255.706 timesteps/s, 627.853 katom-step/s
96.3% CPU use with 1 MPI tasks x 1 OpenMP threads

MPI task timing breakdown:
Section |  min time  |  avg time  |  max time  |%varavg| %total
---------------------------------------------------------------
Pair    | 38.172     | 38.172     | 38.172     |   0.0 | 95.87
Neigh   | 0          | 0          | 0          |   0.0 |  0.00
Comm    | 0.40884    | 0.40884    | 0.40884    |   0.0 |  1.03
Output  | 0.0029786  | 0.0029786  | 0.0029786  |   0.0 |  0.01
Modify  | 1.0909     | 1.0909     | 1.0909     |   0.0 |  2.74
Other   |            | 0.1437     |            |       |  0.36

Nlocal:            500 ave         500 max         500 min
Histogram: 1 0 0 0 0 0 0 0 0 0
Nghost:           1956 ave        1956 max        1956 min
Histogram: 1 0 0 0 0 0 0 0 0 0
Neighs:          31225 ave       31225 max       31225 min
Histogram: 1 0 0 0 0 0 0 0 0 0

Total # of neighbors = 31225
Ave neighs/atom = 62.45
Neighbor list builds = 0
Dangerous builds = 0
T=300K vol=6020.021381045086855 lx=18.191395301546279484 density=8.7646905012549218839 pe=-1749.5240687612013062
Setting up Verlet run ...
  Unit style    : metal
  Current step  : 70000
  Time step     : 0.001
Per MPI rank memory allocation (min/avg/max) = 3.394 | 3.394 | 3.394 Mbytes
   Step          Temp          PotEng         KinEng         Press          Volume           Lx          Density    
     70000   299.43052     -1749.5241      19.313512     -5551.8046      6020.0214      18.191395      8.7646905    
     70500   308.15873     -1749.6495      19.876489      1333.5672      5988.5285      18.159618      8.8107829    
     71000   317.69771     -1748.8984      20.491761      4100.9913      5980.0083      18.151002      8.8233363    
     71500   339.34933     -1747.1639      21.888307     -3053.857       6019.8712      18.191244      8.7649091    
     72000   354.95599     -1748.0092      22.89495      -796.60651      6006.2563      18.17752       8.7847773    
     72500   357.16054     -1745.7026      23.037145      1625.0358      6003.7724      18.175013      8.7884118    
     73000   347.16607     -1745.7127      22.392493     -1631.7389      6018.4667      18.189829      8.7669546    
     73500   365.9018      -1746.3352      23.600963      461.42973      6007.1868      18.178458      8.7834165    
     74000   394.70321     -1745.0016      25.458677      1005.8919      6011.704       18.183014      8.7768167    
     74500   380.85479     -1743.4722      24.565443      136.54274      6019.4748      18.190845      8.7654864    
     75000   396.66541     -1743.7545      25.585241     -1341.3056      6026.8587      18.19828       8.7547472    
     75500   426.32307     -1743.531       27.498184     -1456.8366      6028.6607      18.200093      8.7521303    
     76000   433.47806     -1740.9015      27.959687     -253.3235       6034.6739      18.206142      8.7434094    
     76500   435.95927     -1740.9891      28.119727     -3609.7711      6049.7752      18.221316      8.7215843    
     77000   412.60905     -1740.5884      26.613619      5911.6215      6006.9493      18.178219      8.7837639    
     77500   428.25011     -1741.4994      27.62248      -141.16476      6031.706       18.203157      8.7477115    
     78000   470.46744     -1737.8325      30.345532     -5583.4805      6071.8707      18.243472      8.6898465    
     78500   451.77938     -1737.5064      29.140137      4595.7111      6026.0352      18.197451      8.7559436    
     79000   505.02624     -1736.075       32.574603      1200.2019      6048.2458      18.219781      8.7237897    
     79500   503.01035     -1737.0691      32.444576     -5183.8266      6075.3142      18.246921      8.684921     
     80000   473.33027     -1735.8523      30.530187      3126.4508      6039.1295      18.210622      8.7369585    
Loop time of 8.13151 on 1 procs for 10000 steps with 500 atoms

Performance: 106.253 ns/day, 0.226 hours/ns, 1229.784 timesteps/s, 614.892 katom-step/s
96.3% CPU use with 1 MPI tasks x 1 OpenMP threads

MPI task timing breakdown:
Section |  min time  |  avg time  |  max time  |%varavg| %total
---------------------------------------------------------------
Pair    | 7.8014     | 7.8014     | 7.8014     |   0.0 | 95.94
Neigh   | 0          | 0          | 0          |   0.0 |  0.00
Comm    | 0.082799   | 0.082799   | 0.082799   |   0.0 |  1.02
Output  | 0.00057726 | 0.00057726 | 0.00057726 |   0.0 |  0.01
Modify  | 0.21817    | 0.21817    | 0.21817    |   0.0 |  2.68
Other   |            | 0.02854    |            |       |  0.35

Nlocal:            500 ave         500 max         500 min
Histogram: 1 0 0 0 0 0 0 0 0 0
Nghost:           1956 ave        1956 max        1956 min
Histogram: 1 0 0 0 0 0 0 0 0 0
Neighs:          32258 ave       32258 max       32258 min
Histogram: 1 0 0 0 0 0 0 0 0 0

Total # of neighbors = 32258
Ave neighs/atom = 64.516
Neighbor list builds = 0
Dangerous builds = 0
Setting up Verlet run ...
  Unit style    : metal
  Current step  : 80000
  Time step     : 0.001
Per MPI rank memory allocation (min/avg/max) = 3.394 | 3.394 | 3.394 Mbytes
   Step          Temp          PotEng         KinEng         Press          Volume           Lx          Density    
     80000   473.33027     -1735.8523      30.530187      3126.4508      6039.1295      18.210622      8.7369585    
     80500   507.33924     -1735.7061      32.723793      1440.6257      6050.526       18.22207       8.720502     
     81000   521.6233      -1737.7043      33.645127     -139.60329      6049.9598      18.221502      8.7213182    
     81500   478.77965     -1735.5884      30.881676      16.695891      6055.0019      18.226562      8.7140557    
     82000   501.93783     -1736.6631      32.375398     -4759.4447      6074.4897      18.246095      8.6860998    
     82500   500.81438     -1734.9366      32.302934     -9759.0071      6105.2996      18.276891      8.6422661    
     83000   474.5774      -1734.725       30.610628     -6986.4488      6091.7759      18.263386      8.6614519    
     83500   488.1854      -1735.4107      31.488355     -4323.668       6077.0988      18.248707      8.6823706    
     84000   503.43782     -1734.5168      32.472148     -3628.504       6077.8619      18.249471      8.6812806    
     84500   504.91127     -1735.8276      32.567187     -1496.3992      6063.0877      18.234672      8.7024346    
     85000   497.43907     -1737.3771      32.085224     -473.28141      6052.4701      18.224021      8.717701     
     85500   485.50849     -1734.0676      31.315692      2683.6457      6048.1316      18.219666      8.7239544    
     86000   507.22617     -1733.9881      32.7165        3849.3904      6046.1766      18.217703      8.7267753    
     86500   527.53839     -1736.9625      34.026655      4712.7632      6031.0628      18.20251       8.7486445    
     87000   503.22674     -1736.6813      32.458534      3076.6902      6037.8126      18.209298      8.7388641    
     87500   478.62107     -1738.2064      30.871448      1347.1196      6040.1548      18.211653      8.7354755    
     88000   496.17248     -1736.7489      32.003528     -2551.6468      6062.7429      18.234326      8.7029295    
     88500   487.80498     -1734.8272      31.463817     -4829.3373      6080.593       18.252204      8.6773813    
     89000   489.49088     -1734.5243      31.57256      -4892.6289      6084.0481      18.25566       8.6724535    
     89500   509.67798     -1734.8355      32.874644     -6085.1474      6088.0067      18.259619      8.6668144    
     90000   488.43064     -1735.1764      31.504173     -2124.0778      6068.3954      18.239991      8.694823     
     90500   513.6296      -1737.3811      33.129526     -2790.9205      6063.816       18.235402      8.7013894    
     91000   496.25822     -1734.0586      32.009058     -70.051557      6061.4708      18.233051      8.7047559    
     91500   496.15044     -1734.4377      32.002107      1844.4323      6053.1697      18.224724      8.7166934    
     92000   501.55399     -1737.3305      32.35064       234.24812      6048.8475      18.220385      8.7229219    
     92500   489.51843     -1736.0408      31.574336      3435.1734      6039.0016      18.210493      8.7371436    
     93000   536.4732      -1734.5428      34.602957      4305.0533      6041.8289      18.213335      8.733055     
     93500   515.54777     -1735.8179      33.25325       8213.9252      6019.0301      18.190397      8.7661339    
     94000   477.91917     -1735.2409      30.826175      8247.6801      6019.3356      18.190704      8.7656891    
     94500   509.58511     -1737.5245      32.868654      2713.3464      6036.3465      18.207824      8.7409866    
     95000   490.07488     -1735.3747      31.610228     -694.39137      6059.786       18.231361      8.7071762    
     95500   505.49163     -1735.1482      32.604621     -2925.7009      6072.5863      18.244189      8.6888225    
     96000   482.93221     -1734.2224      31.14952      -1460.441       6067.9612      18.239556      8.6954453    
     96500   455.39207     -1738.9279      29.373158     -1256.136       6045.6463      18.21717       8.7275406    
     97000   518.73517     -1735.6609      33.45884      -1718.0798      6065.5492      18.237139      8.698903     
     97500   505.89215     -1735.8928      32.630455     -786.52523      6059.0913      18.230665      8.7081745    
     98000   520.86677     -1737.4287      33.59633      -938.69753      6056.0361      18.2276        8.7125676    
     98500   468.02221     -1736.7307      30.187813      1092.5864      6045.4015      18.216924      8.7278941    
     99000   493.92545     -1735.9968      31.858593     -517.29211      6056.5049      18.22807       8.7118932    
     99500   526.27989     -1737.3352      33.94548       433.32743      6049.8197      18.221361      8.7215201    
    100000   469.11805     -1736.0549      30.258495      2187.3114      6043.8328      18.215348      8.7301595    
    100500   490.83961     -1736.7374      31.659554     -289.09909      6051.8365      18.223386      8.7186136    
    101000   525.11732     -1736.306       33.870494     -3774.5455      6074.0051      18.24561       8.6867929    
    101500   512.63262     -1735.9208      33.06522      -4374.9848      6076.6872      18.248295      8.6829587    
    102000   482.06073     -1735.3844      31.093308     -4718.8485      6079.0255      18.250635      8.6796188    
    102500   464.96181     -1737.0319      29.990414     -3826.1413      6068.3135      18.239909      8.6949403    
    103000   484.07356     -1736.6229      31.223138     -4469.7734      6072.4758      18.244078      8.6889805    
    103500   488.63006     -1734.77        31.517036     -2144.2796      6069.2882      18.240886      8.693544     
    104000   491.46657     -1734.6551      31.699993      106.65961      6057.7981      18.229367      8.7100335    
    104500   487.38287     -1737.2234      31.436591      2287.0152      6037.8842      18.20937       8.7387605    
    105000   485.85277     -1737.1991      31.337898      3860.4214      6031.0543      18.202502      8.7486568    
    105500   523.39512     -1736.9748      33.759411      4276.601       6033.8384      18.205302      8.74462      
    106000   513.51334     -1735.6488      33.122028      4056.4116      6038.2595      18.209748      8.7382174    
    106500   475.5066      -1735.5622      30.670562      3070.6418      6042.5348      18.214044      8.7320349    
    107000   492.74708     -1738.2354      31.782587      1193.0034      6040.051       18.211548      8.7356256    
    107500   484.03311     -1735.6934      31.220529      1231.5409      6050.5906      18.222135      8.7204088    
    108000   486.87046     -1734.6813      31.40354      -198.95694      6061.8044      18.233385      8.704277     
    108500   474.26462     -1736.6424      30.590453     -3741.0759      6068.4954      18.240091      8.6946798    
    109000   475.24263     -1736.4435      30.653535     -7164.6454      6085.7914      18.257404      8.6699693    
    109500   513.73518     -1735.8742      33.136336     -9521.2056      6099.8105      18.271412      8.6500431    
    110000   511.41464     -1736.0359      32.98666      -7346.958       6090.7684      18.262379      8.6628847    
    110500   449.47547     -1736.7215      28.991533     -1832.6274      6058.6716      18.230244      8.7087777    
    111000   502.02923     -1736.7279      32.381293     -1075.786       6056.9974      18.228564      8.7111849    
    111500   518.4143      -1736.3375      33.438144     -1200.5767      6060.7881      18.232366      8.7057365    
    112000   501.8972      -1736.5209      32.372777      483.82546      6051.1874      18.222734      8.7195489    
    112500   465.29402     -1737.5947      30.011842      2402.0937      6036.0113      18.207487      8.7414721    
    113000   514.35759     -1736.7274      33.176482      134.72454      6053.1396      18.224693      8.7167368    
    113500   533.34635     -1736.097       34.401273     -1331.5501      6060.9168      18.232495      8.7055516    
    114000   511.95028     -1736.8304      33.021209     -543.92163      6056.2795      18.227844      8.7122175    
    114500   479.28935     -1736.7421      30.914553      1785.5419      6044.306       18.215824      8.729476     
    115000   510.95169     -1736.7993      32.956799      868.52477      6050.3999      18.221943      8.7206837    
    115500   541.27845     -1736.406       34.9129        604.5624       6053.6193      18.225175      8.716046     
    116000   524.52684     -1735.5011      33.832407      1591.2923      6050.9611      18.222507      8.719875     
    116500   495.65353     -1735.6583      31.970055      172.34687      6055.8436      18.227407      8.7128446    
    117000   481.34509     -1735.9551      31.047149     -2505.0267      6064.7143      18.236302      8.7001005    
    117500   481.85678     -1737.2315      31.080154     -4639.8854      6072.693       18.244296      8.6886698    
    118000   498.92582     -1735.6877      32.181121     -6510.7162      6086.0495      18.257662      8.6696015    
    118500   508.47518     -1736.4915      32.797062     -6304.2283      6083.6868      18.255299      8.6729686    
    119000   484.76426     -1737.9084      31.267689     -2161.7779      6057.0072      18.228574      8.7111708    
    119500   466.03415     -1735.8883      30.059581      1651.4935      6045.5343      18.217058      8.7277024    
    120000   504.77978     -1736.6963      32.558706      725.67079      6049.9185      18.22146       8.7213777    
    120500   483.26182     -1733.7075      31.17078       2936.8681      6049.316       18.220855      8.7222463    
    121000   475.64509     -1734.9971      30.679495      1339.6547      6052.3042      18.223855      8.7179399    
    121500   502.54011     -1736.1503      32.414246      1583.2535      6046.3464      18.217873      8.7265302    
    122000   526.50346     -1734.6989      33.959901      593.51846      6058.2685      18.229839      8.7093571    
    122500   522.82905     -1736.1861      33.722898      1233.5225      6049.8757      18.221417      8.7214394    
    123000   509.57922     -1737.6267      32.868274      3242.7035      6034.2223      18.205688      8.7440638    
    123500   484.37772     -1736.6147      31.242756      4589.7559      6031.4456      18.202895      8.7480892    
    124000   523.66746     -1734.5009      33.776976      3468.5639      6045.2716      18.216794      8.7280817    
    124500   497.72362     -1735.6921      32.103578      3444.9859      6039.9912      18.211488      8.7357121    
    125000   491.09773     -1736.8654      31.676202      1915.5284      6042.3506      18.213859      8.732301     
    125500   475.69631     -1737.3551      30.682798     -2166.0788      6059.0139      18.230587      8.7082857    
    126000   443.59991     -1733.702       28.612554     -3533.4033      6077.4221      18.249031      8.6819088    
    126500   490.70459     -1735.4806      31.650845     -2812.1035      6070.0482      18.241647      8.6924556    
    127000   501.84506     -1733.968       32.369414     -2549.3758      6075.5482      18.247155      8.6845866    
    127500   530.53601     -1737.7358      34.220003     -3884.2118      6068.4041      18.24          8.6948107    
    128000   488.22158     -1736.6371      31.490689     -62.620543      6052.8427      18.224395      8.7171642    
    128500   501.81241     -1734.1561      32.367308      1917.7775      6053.0903      18.224644      8.7168077    
    129000   494.34252     -1737.3899      31.885494      3372.5597      6033.201       18.204661      8.7455439    
    129500   512.37185     -1737.3852      33.0484        5267.12        6027.2887      18.198713      8.7541226    
    130000   534.0464      -1736.4794      34.446426      7243.2089      6021.7149      18.193101      8.7622256    
Loop time of 40.3949 on 1 procs for 50000 steps with 500 atoms

Performance: 106.944 ns/day, 0.224 hours/ns, 1237.779 timesteps/s, 618.889 katom-step/s
96.3% CPU use with 1 MPI tasks x 1 OpenMP threads

MPI task timing breakdown:
Section |  min time  |  avg time  |  max time  |%varavg| %total
---------------------------------------------------------------
Pair    | 38.744     | 38.744     | 38.744     |   0.0 | 95.91
Neigh   | 0          | 0          | 0          |   0.0 |  0.00
Comm    | 0.41203    | 0.41203    | 0.41203    |   0.0 |  1.02
Output  | 0.0029924  | 0.0029924  | 0.0029924  |   0.0 |  0.01
Modify  | 1.0902     | 1.0902     | 1.0902     |   0.0 |  2.70
Other   |            | 0.1452     |            |       |  0.36

Nlocal:            500 ave         500 max         500 min
Histogram: 1 0 0 0 0 0 0 0 0 0
Nghost:           1956 ave        1956 max        1956 min
Histogram: 1 0 0 0 0 0 0 0 0 0
Neighs:          31196 ave       31196 max       31196 min
Histogram: 1 0 0 0 0 0 0 0 0 0

Total # of neighbors = 31196
Ave neighs/atom = 62.392
Neighbor list builds = 0
Dangerous builds = 0
T=500K vol=6021.7148956019354955 lx=18.193100971255560694 density=8.7622255670613427014 pe=-1736.4794087840102748
ERROR: Unmatched double quote in command (src/input.cpp:468)
Last command: "
