ITEM: TIMESTEP
85000
ITEM: NUMBER OF ATOMS
2048
ITEM: BOX BOUNDS pp pp pp
0.0000000000000000e+00 1.3679807573413575e+01
0.0000000000000000e+00 1.3679807573413575e+01
0.0000000000000000e+00 1.3679807573413575e+01
ITEM: ATOMS id type xu yu zu
1925 1 0.312709 13.763 -0.231597
1242 1 14.7498 0.122492 12.6485
2 1 -0.0824914 13.6507 0.844296
1700 1 1.33701 0.676837 27.0801
1772 1 0.619563 0.868763 0.775483
584 1 2.31385 14.9506 -13.9998
1559 1 4.31766 2.33798 15.3138
1883 1 17.1388 15.1057 13.5884
1179 1 6.55092 1.37966 -13.6029
31 1 5.23771 2.07448 1.08876
1221 1 4.93876 14.3215 0.622729
985 1 18.706 1.68782 13.6166
718 1 7.63041 14.2109 14.541
1600 1 5.159 0.0910933 17.2152
1327 1 5.84872 1.19029 0.813485
524 1 7.26755 -0.0892599 0.0161887
325 1 8.0991 1.9677 -0.798545
1044 1 9.56687 0.502904 13.6231
1813 1 -4.29928 1.01585 14.6854
707 1 8.74822 13.9319 1.15316
877 1 7.8389 13.8462 -0.941661
510 1 10.3862 15.3337 -0.90965
1932 1 10.474 1.56706 15.7984
515 1 -3.34863 0.547108 15.4619
71 1 -0.376041 14.5119 0.124669
1156 1 -1.16001 15.1442 0.641759
1160 1 0.966191 15.439 15.0661
1583 1 1.73925 15.9904 15.8576
1071 1 26.4209 2.48321 14.5662
287 1 14.8436 2.58407 -0.485441
4 1 -9.9088 15.1045 1.93703
436 1 3.11191 15.8346 1.63515
1778 1 15.722 15.399 1.00336
112 1 3.14228 1.35291 0.962374
86 1 29.6873 -10.6631 0.174047
1029 1 3.64862 -11.2092 16.0935
77 1 4.27376 3.47554 2.0943
475 1 5.08874 3.19813 15.1477
799 1 5.98662 1.95323 -0.491658
350 1 20.9786 -11.9711 0.75386
1265 1 9.13097 15.8493 13.1966
447 1 23.2789 3.14825 0.424381
872 1 9.14592 -11.6006 0.706968
219 1 10.619 17.5097 0.70296
1608 1 -2.03329 1.95493 14.5098
845 1 10.8616 16.4224 1.16388
1641 1 10.8618 2.65174 13.6982
1097 1 -2.03377 15.1414 13.6847
37 1 1.30246 2.59784 -13.1566
1728 1 13.7818 2.43962 15.4711
1880 1 1.12341 3.90756 0.407003
2041 1 16.4999 2.14766 14.1312
1744 1 1.31886 3.18632 16.3311
1862 1 15.9874 19.067 16.2886
1279 1 2.65766 31.1534 0.998608
815 1 3.02093 5.38601 0.315534
893 1 17.882 -8.13512 2.2588
36 1 4.47181 3.81266 0.730425
759 1 4.99184 4.36734 15.1806
479 1 5.63444 17.4608 2.35433
1575 1 -8.43129 3.53285 13.4484
1093 1 7.15337 -10.7576 13.8762
1362 1 5.56173 3.91601 0.722005
601 1 6.18172 4.0163 -0.458621
328 1 -7.28361 3.67212 12.064
507 1 7.72487 16.6068 12.9408
786 1 22.6317 -10.9832 -11.5818
854 1 7.07728 4.61048 1.63564
746 1 -5.31798 17.1588 0.0782208
187 1 6.90063 4.37566 0.567381
84 1 10.4573 4.21735 2.186
1375 1 10.0485 -10.3065 1.4483
234 1 11.8286 3.76246 0.190861
242 1 11.8693 2.97161 -12.4021
93 1 26.6903 17.2018 -0.0167651
1482 1 -0.980298 1.63117 1.92652
646 1 -1.48235 3.80292 15.7883
603 1 13.8041 2.913 0.296795
1735 1 1.06909 5.8881 14.5788
901 1 13.7883 18.9559 -12.8781
1149 1 -0.458626 6.4632 0.756025
2013 1 15.1225 17.1875 1.27146
1414 1 1.93461 18.2587 0.831825
157 1 15.3812 5.31806 1.41371
497 1 1.63507 17.1806 -0.597223
82 1 3.19931 -7.49819 2.00036
1929 1 4.59944 6.56034 -0.363005
551 1 4.09072 5.96914 0.569766
730 1 18.6905 19.0769 1.64287
643 1 -7.71232 5.47197 1.57054
653 1 -8.1285 5.24694 2.61104
1274 1 19.2143 5.19022 0.693047
727 1 7.14842 5.11193 -0.506436
106 1 7.08753 5.90032 1.6563
830 1 7.80044 4.18636 2.49597
1502 1 22.631 18.7988 14.4828
782 1 9.62516 5.68229 15.0692
616 1 8.48299 4.19935 14.9686
1818 1 11.7669 4.1874 14.984
1292 1 10.4935 6.13909 28.0805
918 1 11.585 19.1375 2.21978
1002 1 12.6433 17.3257 14.7279
367 1 10.3953 4.82097 1.31742
1877 1 -1.02739 4.77885 15.5675
2011 1 12.6898 18.3483 14.228
90 1 13.7241 -9.58926 0.487582
993 1 -0.20146 7.92654 0.767173
14 1 0.757065 -8.09643 2.19593
825 1 15.74 6.60567 -1.24664
17 1 2.7717 -4.26206 1.81834
39 1 3.16619 6.56399 1.00172
810 1 1.90763 6.57909 0.613372
1687 1 3.72172 7.80971 28.1316
429 1 4.39386 7.00804 0.660085
1805 1 17.8664 6.46272 1.53329
1412 1 4.05449 8.71354 14.6558
1368 1 18.8044 7.10014 15.2359
1459 1 4.89841 -6.68283 16.4508
1724 1 19.192 19.9192 14.3973
1340 1 5.48313 8.05234 27.3013
483 1 6.28266 6.6169 1.62817
1971 1 6.87636 7.03784 0.255725
1065 1 -5.8435 6.09983 2.45072
848 1 8.38288 6.17917 15.1068
364 1 7.83563 5.04763 0.767667
1839 1 8.72375 -5.08828 14.785
1456 1 9.14695 6.92421 14.8041
1302 1 23.5601 6.81827 0.130529
884 1 8.42565 -6.18699 0.620205
518 1 11.8601 -6.67535 -0.732545
452 1 10.3291 20.1419 1.61754
870 1 -13.7327 7.14121 13.6757
1843 1 14.0554 6.05627 13.6487
1024 1 11.7283 19.2064 1.13671
770 1 -0.0902299 -6.50515 15.3572
1058 1 -1.64156 5.86433 12.7837
1258 1 -12.153 7.56067 0.37819
560 1 2.08554 9.36075 14.7425
933 1 2.18667 8.35087 0.559177
1025 1 1.67185 11.1132 0.699127
438 1 15.9429 8.66572 2.73067
553 1 3.67043 -4.08436 13.2574
1430 1 19.1256 21.659 1.74613
1572 1 -9.86912 -4.62576 15.8972
1394 1 4.60776 -4.14094 15.2043
264 1 6.66096 8.06538 1.7267
1854 1 33.2962 -20.0242 2.47848
74 1 -7.62727 8.64454 14.5949
1398 1 6.41502 9.57631 14.5801
1617 1 6.49098 -5.76837 13.1415
116 1 7.54407 22.9528 0.377822
533 1 10.5735 -5.4352 1.00787
585 1 9.38712 8.83997 27.4659
418 1 9.35617 8.09449 15.5132
470 1 9.5989 7.13472 2.05546
1882 1 24.4366 7.12689 14.6024
1789 1 -0.69695 9.08588 14.2869
642 1 11.5287 7.60653 0.251519
1439 1 26.1497 7.50285 13.6194
1247 1 14.5527 8.29861 14.4303
1317 1 1.31071 -4.50311 14.0849
431 1 1.2136 7.20574 2.68784
929 1 3.09579 -3.15757 -0.0347616
1695 1 16.6976 -1.58811 29.061
152 1 3.84423 10.9209 0.830051
694 1 3.34882 9.23613 0.43805
218 1 2.73385 10.6142 2.00578
59 1 3.97743 11.2342 -11.6368
1205 1 5.25317 10.2302 14.8589
641 1 5.10199 8.93708 14.4266
1249 1 5.95843 23.8272 2.04242
1448 1 19.8431 -2.99107 14.1426
1135 1 5.97541 -1.50516 13.992
2044 1 5.42899 23.4488 0.321737
606 1 21.2365 10.4852 -1.12239
1622 1 -4.90706 9.55391 14.514
1861 1 10.6759 10.1133 13.7318
1624 1 11.5009 -4.9473 14.4219
1239 1 25.5806 10.0886 12.9671
26 1 23.2692 -5.69221 0.741744
1331 1 -0.526186 -6.13883 -0.888296
1343 1 11.9092 9.64596 0.472181
802 1 0.220493 23.0699 14.0713
590 1 13.5577 11.6216 0.52414
439 1 0.822014 11.9604 -0.246368
1080 1 2.77745 -2.57748 14.7107
7 1 17.0373 12.2943 0.778206
1405 1 17.6159 12.877 1.51447
24 1 5.39483 -1.30733 1.33988
1619 1 4.83661 -1.7126 0.251578
99 1 3.02976 -0.155202 -12.2304
935 1 19.6826 11.468 1.44205
1033 1 8.22871 11.6715 0.56969
2046 1 9.8012 11.4708 14.6994
1109 1 8.08555 -3.50657 -0.00665067
8 1 -4.53055 12.259 0.593399
1169 1 8.83399 10.3706 1.72309
449 1 8.98599 10.8765 14.3666
1858 1 11.5966 -2.89813 13.9236
88 1 10.7339 -1.1333 -0.541557
1525 1 8.08658 13.1133 14.378
433 1 -1.59096 9.7537 1.55346
1406 1 24.8593 11.3506 2.16806
907 1 11.0476 11.5531 13.1554
1802 1 10.3545 11.0684 13.6656
844 1 -1.88518 -2.68872 15.0071
1800 1 1.52043 -16.6757 15.8753
1167 1 -13.4954 -3.04473 0.555757
1487 1 -1.85567 12.211 14.842
334 1 -0.922781 12.7586 1.69892
28 1 0.0116905 12.2006 1.82072
659 1 -0.925728 25.2792 1.5225
1114 1 0.185969 -0.917414 0.333225
1804 1 2.23562 -1.68494 14.3491
122 1 15.0928 12.5428 0.539123
114 1 14.7498 13.6298 0.57114
225 1 -12.4768 -0.509936 -0.303517
1714 1 16.285 -0.664864 14.3367
392 1 2.53235 14.1654 0.79602
622 1 17.1158 13.0331 -0.29031
597 1 19.3031 0.164693 1.67102
1868 1 4.69484 -0.560976 -0.335844
1115 1 5.02623 -0.334887 14.5802
1429 1 6.86062 -1.34179 1.17983
1541 1 5.60876 -0.131489 -0.163923
939 1 6.08322 13.0425 0.998668
1460 1 21.6662 12.2114 15.0959
1330 1 -5.25333 0.21801 13.7023
1396 1 8.47234 11.3921 15.5141
1987 1 -5.24132 12.554 13.4048
1300 1 9.97766 -0.0387875 1.05745
472 1 10.2242 12.5196 0.491632
1563 1 23.313 -15.0968 -0.322361
822 1 -2.32927 12.9579 0.598914
638 1 27.1898 -0.277023 1.90836
2023 1 0.851523 13.9819 1.74095
1515 1 2.35994 14.3468 2.90355
1435 1 1.57454 14.4853 1.04059
1157 1 2.42597 0.922582 1.79762
1948 1 16.2895 15.2905 29.7734
703 1 18.6481 -12.4238 1.69127
1001 1 3.12596 13.743 3.11133
1503 1 29.5427 13.7405 13.3543
647 1 -10.3616 0.996946 2.78508
468 1 5.55066 14.1596 -11.0439
1510 1 18.4788 11.8865 4.51879
926 1 19.9843 15.9004 0.937756
1452 1 19.5809 15.2112 2.09332
1259 1 6.38455 13.7005 3.61547
458 1 -5.17218 15.3003 1.32083
1983 1 7.07116 -0.356905 0.993169
1200 1 6.67342 0.319975 1.62507
1191 1 9.40862 15.1283 15.7136
1015 1 -3.30719 13.8406 2.81302
575 1 9.39214 0.306928 15.8879
951 1 -2.31419 14.7618 15.2999
1102 1 11.7622 0.0951869 15.1997
536 1 -1.66311 14.0156 0.417884
125 1 13.5431 1.45129 -12.5178
602 1 12.8458 0.802423 1.2837
1355 1 0.628091 1.77291 16.072
413 1 16.5728 4.78658 2.03875
248 1 15.1578 14.7278 2.0866
1698 1 -11.6469 3.14803 17.1807
1596 1 15.7663 4.11721 16.6056
849 1 16.8464 -10.3242 2.25091
974 1 5.83354 15.9708 3.19303
808 1 6.21181 2.85009 2.05666
1155 1 7.04533 1.33637 1.65849
617 1 6.60367 3.20968 1.15209
997 1 7.2888 29.9375 1.83895
216 1 8.05353 15.7393 2.30636
2037 1 8.01582 17.0002 15.6032
636 1 8.23871 15.3588 0.252051
640 1 21.8018 -12.7257 15.7409
945 1 21.6662 16.2453 0.88071
132 1 9.91089 14.8824 2.875
1499 1 36.1156 3.23533 14.7517
126 1 23.327 3.31831 3.72915
964 1 -3.92721 15.9265 2.69598
829 1 11.1928 17.1834 1.99582
176 1 -3.72563 15.959 1.5252
1998 1 -2.69333 1.12021 16.674
1808 1 12.1116 2.65214 3.22186
1531 1 13.1307 2.1399 2.69421
1526 1 -2.53795 2.42467 15.8161
1573 1 -0.283017 4.27077 1.45666
1976 1 14.1275 3.30098 14.8878
1615 1 1.17351 4.86483 16.5724
824 1 13.0764 3.14904 1.73923
142 1 3.91071 4.52403 2.41898
1640 1 15.8232 4.01004 1.94843
693 1 3.93961 -8.60816 -10.1495
356 1 6.57792 2.6611 17.5556
1319 1 4.67537 -9.5923 2.81974
1130 1 6.33578 4.58734 2.64182
1769 1 8.65115 32.2405 16.5676
1551 1 6.00112 4.2743 15.2468
500 1 7.66918 3.64032 -12.7022
657 1 -4.78965 16.2008 3.12263
596 1 -3.66462 17.0148 2.51577
604 1 9.2783 3.78758 15.5857
1451 1 10.1484 4.4183 4.15798
652 1 -2.69445 4.20259 -10.2386
717 1 10.6273 18.6934 16.6815
341 1 -1.51849 2.5115 -11.466
432 1 0.209614 18.4035 2.36695
1623 1 13.246 -7.70238 16.4587
666 1 0.764236 4.50695 -12.3521
344 1 16.6037 -8.95541 3.3694
546 1 -12.4151 5.15736 3.83838
1782 1 2.64903 19.2085 14.8793
1127 1 -10.2941 5.6252 2.83304
109 1 19.3742 -7.55453 3.34741
425 1 6.39918 5.30476 -9.12922
1727 1 7.21617 5.19151 2.59733
1051 1 32.785 6.22223 15.6781
401 1 6.47811 19.6903 2.66714
1255 1 -5.93009 5.38158 17.0561
1152 1 8.43309 5.07678 15.5848
1522 1 8.94181 19.6871 2.38102
1588 1 -4.1357 -8.84553 2.22486
1035 1 -3.89742 6.57055 3.29482
1346 1 -2.17884 -9.18895 2.5573
1981 1 12.2362 6.12652 16.4335
1648 1 11.847 4.97373 18.6615
620 1 12.58 4.37019 16.627
1644 1 12.552 5.987 15.401
11 1 2.39825 -7.74671 3.93905
1949 1 15.1646 5.90692 3.06022
1606 1 2.52351 7.41229 14.5741
1075 1 2.30583 20.6322 2.06112
1842 1 3.37887 7.42034 15.3835
898 1 4.39665 7.82948 15.6451
1266 1 4.00182 6.4731 2.64353
259 1 -10.4434 7.18907 -11.0158
531 1 5.73455 7.1028 3.57548
818 1 4.27289 7.33795 3.54251
263 1 20.93 6.72757 3.2569
111 1 7.55232 7.68526 -11.3327
806 1 -5.02107 7.07718 2.56238
1294 1 -5.92707 6.87442 1.67433
1845 1 9.27361 7.62354 16.899
678 1 10.4771 5.91182 16.2393
1158 1 24.0319 6.15662 4.32153
1313 1 -3.26898 21.2643 1.78036
1957 1 -2.4936 4.6861 0.591089
1226 1 11.3014 6.58033 1.93894
1390 1 26.6373 6.61422 13.2479
41 1 -1.6736 -5.20669 2.36727
337 1 0.607215 20.0771 -10.9239
1055 1 15.1523 -7.30299 2.04251
882 1 13.4376 5.51387 1.82226
1760 1 14.409 7.04706 14.6031
1511 1 16.3373 21.4272 -0.174748
1607 1 3.20133 8.20857 29.7865
108 1 0.370507 6.27448 15.1911
153 1 3.97209 10.1215 -11.5051
1365 1 16.2348 6.38865 2.9537
156 1 16.6335 9.74508 2.78426
1974 1 18.6452 8.84813 17.0902
1927 1 5.3065 7.90315 3.10152
698 1 32.2301 22.4283 2.35192
611 1 5.83787 9.21677 1.86745
1028 1 -5.72724 8.59234 15.4721
1911 1 21.6346 10.697 14.7323
1408 1 7.04645 9.44941 15.4025
605 1 8.09342 9.4611 2.8112
2047 1 8.50014 21.3488 15.3633
701 1 23.7638 8.06446 16.4449
1549 1 11.5483 -5.70715 28.8696
249 1 9.44909 23.2762 3.60202
925 1 11.7499 6.49131 -13.027
1817 1 11.2669 -4.40847 2.32558
1639 1 12.719 6.93376 15.9172
1284 1 -0.42329 -5.3232 -0.185219
321 1 -0.858679 -5.71432 2.17524
309 1 16.438 -5.30677 1.46441
1626 1 14.6194 -17.9981 15.0212
1283 1 1.77933 -5.21591 1.79715
435 1 0.890735 10.5085 1.44839
2014 1 13.2963 9.3426 17.3636
1907 1 15.0418 20.9569 1.65202
1889 1 2.07804 25.2573 15.5359
1736 1 4.09117 9.49561 16.8114
1468 1 4.06058 11.5065 16.6549
294 1 -8.14096 10.5476 16.8212
999 1 5.01214 9.78105 2.54599
1571 1 5.81451 -4.23522 16.7196
1492 1 20.5627 -3.79042 16.3411
307 1 7.79195 -2.91769 15.8213
1038 1 8.15692 -4.00889 1.75307
455 1 -3.81663 9.15524 0.94892
840 1 10.9878 9.64789 14.8419
2021 1 -3.53205 9.90809 16.3309
1087 1 10.0279 8.84819 15.8142
1042 1 -1.08978 -6.09093 1.20242
198 1 -14.9765 22.3141 1.33407
1673 1 -1.1652 -3.64644 3.51286
1203 1 11.9289 10.7214 2.71821
581 1 -0.119939 8.81529 15.1738
1345 1 0.429345 -3.71278 15.9609
714 1 -0.784887 9.26249 15.8062
851 1 14.8481 11.7491 1.39257
860 1 14.5888 11.588 2.46861
40 1 0.0645689 10.9194 2.71863
179 1 14.1393 12.5537 2.81734
859 1 16.5942 -2.10923 16.3014
1512 1 4.49168 -3.14147 16.7975
1591 1 1.93584 -1.35209 2.57336
2026 1 1.05855 -2.84303 17.0552
956 1 3.29564 26.3518 2.42318
650 1 2.8124 12.2991 3.35497
1920 1 19.003 11.1543 16.0662
1373 1 6.4629 -2.72388 16.1005
593 1 4.54345 -1.43524 2.21793
1509 1 6.81664 10.4548 1.52413
1532 1 7.17537 11.3959 17.0539
1095 1 9.70499 10.0987 14.1875
888 1 23.6285 -3.59008 1.60521
1753 1 7.27294 11.433 1.57825
521 1 10.6852 -2.85148 1.04368
932 1 -2.79901 10.2524 2.09005
168 1 12.7336 -3.12437 2.03909
1830 1 10.6186 -2.83303 16.6237
1128 1 12.8883 -2.68149 16.8371
10 1 13.4815 9.87506 1.25061
398 1 -0.00382196 10.9871 1.67919
793 1 13.1771 9.96586 2.76423
1455 1 1.40521 13.6683 2.6062
1977 1 1.71172 13.4929 28.9386
621 1 13.2518 -1.66236 2.84453
316 1 15.5739 -1.14151 -12.1197
842 1 3.55042 0.365141 -11.6145
1295 1 16.0981 -0.344067 16.0147
1684 1 4.50504 0.396633 15.4039
868 1 -8.59489 -0.419243 15.8658
1099 1 17.9901 0.65708 2.95717
1299 1 5.49559 -1.3976 16.2117
1517 1 4.77921 12.2898 3.27993
1680 1 -7.37363 13.4179 16.2454
800 1 6.36485 0.270036 0.579527
547 1 -4.41179 -2.69673 2.66658
715 1 9.84798 12.9047 1.67516
747 1 -2.9546 -1.44676 1.46194
1296 1 9.42935 -1.80892 29.5464
1666 1 -3.19796 25.7725 16.1572
942 1 10.9001 -0.478993 2.129
267 1 -2.48928 -1.83162 0.407192
1436 1 10.9617 11.9514 17.1303
1374 1 -2.17158 -2.69607 3.59931
461 1 -2.13523 12.3734 2.18301
347 1 12.2368 11.6206 16.2301
1217 1 -1.81067 12.549 3.6946
644 1 0.827032 -0.695694 15.597
19 1 0.295299 0.165497 2.71552
966 1 -1.10787 14.3115 2.28951
382 1 14.4022 0.763711 4.97259
675 1 2.82393 14.4281 -9.63558
1329 1 4.41422 1.64658 16.3401
195 1 -9.56581 1.31754 3.81183
2020 1 3.92413 13.7789 17.4441
691 1 6.23875 0.668039 4.44519
170 1 6.86648 2.31419 -10.8975
1896 1 7.60463 1.49581 16.6427
1768 1 -6.32407 13.4449 16.8433
905 1 -6.5553 0.634753 2.53282
245 1 8.17682 15.0267 4.10173
227 1 -4.80083 12.8293 15.0778
890 1 -2.12545 0.274331 3.48445
1961 1 10.3547 2.02799 17.3175
1159 1 -1.59385 -12.0381 2.73048
564 1 -1.83531 0.482224 4.4983
1021 1 13.7212 15.088 4.48234
1776 1 12.3919 14.5886 17.3895
255 1 11.5697 0.444634 2.43757
710 1 1.17377 14.7137 3.02586
1859 1 0.382021 2.82792 16.6336
102 1 -0.104883 14.6345 -11.6222
1293 1 13.2319 14.8625 2.99858
1350 1 -10.4896 1.84227 17.171
1851 1 0.583423 1.89629 3.34827
1664 1 15.8452 15.1149 -9.87482
506 1 2.40951 15.9552 4.31346
182 1 17.6305 1.97096 -9.05043
209 1 17.8059 16.9765 -10.5765
1030 1 5.87365 2.57622 4.6848
291 1 -8.88469 2.49633 3.24897
785 1 18.8154 -12.268 3.52104
1012 1 5.31976 15.3968 4.71657
1612 1 -7.36282 3.24764 16.8188
501 1 -6.68234 15.0445 -9.04183
204 1 -4.8958 15.2625 2.80581
779 1 8.87905 2.18677 -9.49233
1561 1 -4.69132 3.36163 18.3475
146 1 9.93408 14.2201 -8.19226
1123 1 -2.45142 2.18073 -10.4491
1454 1 11.1878 16.9849 16.6031
1244 1 11.1764 15.8878 4.51096
743 1 -2.75378 16.7575 3.91096
1692 1 12.9803 17.3491 17.5398
1691 1 -1.49405 2.87593 4.21239
380 1 13.0242 3.24886 2.68289
3 1 -0.113441 1.6835 5.56542
805 1 14.3628 3.86722 2.11368
1483 1 1.08865 17.435 17.2364
1185 1 -10.9648 3.50211 5.56257
33 1 2.62261 2.45579 2.80425
462 1 1.64711 15.8233 4.9633
1103 1 18.9153 2.40178 2.18231
1223 1 2.72423 3.20448 4.27741
1514 1 3.87995 4.09372 3.86606
252 1 6.24336 17.9473 4.03947
702 1 20.9553 30.972 3.93141
791 1 9.92258 5.31304 18.4284
80 1 -4.58776 18.1356 4.30342
1841 1 7.64788 3.1109 2.94992
1814 1 8.58105 3.65666 16.572
1543 1 -2.46663 -7.57063 3.46928
464 1 -3.90001 16.3556 5.45991
1287 1 -3.94341 4.14075 3.05686
1943 1 -2.33505 4.20581 18.1905
1984 1 10.8847 -6.44161 18.7001
2027 1 11.9643 3.84176 3.60918
276 1 -2.06829 3.8787 -8.03022
1032 1 -13.3038 5.36208 3.30765
1969 1 13.9192 4.56343 17.6661
1904 1 1.28287 19.7063 18.3693
171 1 -0.191914 19.3 4.33383
1240 1 1.59195 3.41136 4.56487
1979 1 2.35264 5.35556 18.341
1181 1 2.18585 17.7826 17.7129
879 1 5.22393 4.80213 3.8731
1777 1 16.6227 17.2197 16.9547
375 1 17.0163 5.31794 4.29943
284 1 18.9497 -10.3172 3.43136
1337 1 20.2722 5.44009 3.53654
2006 1 8.35413 5.37494 18.1667
105 1 6.85464 3.59552 2.39205
1982 1 8.8888 7.28537 17.8677
827 1 7.76016 -7.45602 17.8179
1749 1 9.61585 18.8105 3.67039
820 1 8.36014 6.40211 16.9236
772 1 -2.79066 5.06389 17.9848
117 1 9.83015 7.40639 -9.23471
1556 1 11.4019 5.99499 19.4129
766 1 11.8452 18.6724 3.543
181 1 12.3464 19.7621 3.90527
1116 1 0.0564661 3.88893 2.98094
310 1 12.6235 18.5381 4.30022
1958 1 -0.553566 5.17926 17.1694
420 1 -2.26813 20.2049 -9.17608
697 1 14.3646 6.31753 3.83944
720 1 1.95381 7.08656 3.77902
1465 1 15.9596 6.65197 4.86201
1342 1 16.9023 -6.02143 17.2751
1646 1 3.3594 -7.26889 -10.0793
426 1 3.30259 20.2902 4.59925
274 1 5.2149 -7.24565 -9.49679
668 1 4.28814 5.81833 4.72246
751 1 19.0235 5.78175 5.28248
444 1 -7.18471 6.31042 4.22552
952 1 6.35193 7.45667 -9.29084
910 1 7.46461 7.26725 -9.58045
783 1 8.1249 -6.17718 -10.3168
1577 1 -6.79068 -5.18611 18.1069
2017 1 -6.47394 20.1973 18.6299
1089 1 -5.74345 8.07519 18.0156
1823 1 8.82885 22.2 17.4965
1497 1 9.20687 21.8741 4.77955
573 1 24.3271 -6.38806 17.3915
1601 1 -2.88333 6.961 16.3899
794 1 12.4689 -5.42558 17.8877
430 1 -1.90762 21.2886 4.3358
538 1 -1.10359 21.1716 3.28538
62 1 13.3841 6.7283 3.61444
1392 1 0.0850188 7.37117 16.3869
1713 1 14.9122 -5.1603 -10.789
348 1 2.2077 7.56164 2.83923
1951 1 16.1278 8.16825 18.0877
1752 1 3.30345 -4.99783 18.6272
763 1 16.6409 8.65712 3.42051
2042 1 15.159 21.8399 17.7723
612 1 1.54796 9.7134 5.96722
554 1 18.0356 -5.25119 4.92404
1500 1 3.68523 7.70485 18.2918
128 1 18.5846 7.99682 4.19143
934 1 6.24153 8.40751 2.58953
22 1 5.82799 -5.85234 5.23032
385 1 -6.38402 23.5843 3.91747
1190 1 6.82362 7.67936 16.8702
1410 1 8.53655 8.24269 2.64244
351 1 9.78319 -3.29811 4.7315
275 1 9.86133 8.37212 3.93224
258 1 10.5284 8.75084 -10.3797
595 1 24.6862 8.31582 16.243
303 1 -3.14618 9.39498 -9.49202
379 1 -1.91637 7.36638 2.43854
519 1 -0.27796 -5.53566 3.42381
1023 1 14.1086 21.6992 1.87886
742 1 -0.419101 7.45028 -9.32828
544 1 15.2534 -4.30546 -10.1697
1632 1 14.2904 -4.86197 3.71723
1141 1 13.6776 8.97729 2.86544
161 1 3.42389 9.74264 4.9156
92 1 15.6622 10.3129 -12.2918
1516 1 3.88765 8.66908 3.93548
471 1 2.36357 9.0925 -9.57847
662 1 5.89541 22.0927 17.5723
1828 1 2.20428 10.4347 3.00284
370 1 18.0559 9.46741 4.26872
466 1 6.71755 8.98134 3.39496
27 1 6.34951 -3.62957 -9.98012
2040 1 7.60858 8.55516 16.8243
1113 1 6.08843 23.9471 18.5105
290 1 -5.35784 10.689 16.7842
1263 1 7.92363 10.4119 4.92895
332 1 8.73621 10.6593 3.99591
1480 1 -3.9423 24.2191 17.1805
320 1 -2.32736 9.89931 3.20109
1040 1 10.787 -3.34137 4.14998
682 1 -1.17266 8.97623 3.05481
305 1 11.603 8.0684 -10.2482
1314 1 -1.02176 10.5326 4.43124
1699 1 -0.108697 22.3858 4.52152
1829 1 -1.27304 -4.45672 4.41437
184 1 13.7424 10.9193 4.99021
456 1 0.0775782 10.6633 3.69724
271 1 0.918899 -1.06668 -9.35238
268 1 15.113 -4.24869 2.38648
58 1 15.5624 -2.4111 -9.39173
1341 1 17.7864 8.20566 2.92694
673 1 16.956 10.8032 3.24906
2045 1 16.9637 9.64014 3.90551
1215 1 18.865 10.1783 4.01342
1704 1 5.96101 -2.05152 16.8586
345 1 18.3435 11.0868 3.93915
1720 1 6.77265 12.4374 3.13067
676 1 -6.94244 24.6335 18.2897
272 1 -4.54731 -4.54815 1.97449
1175 1 8.96602 9.97616 2.62279
1871 1 7.94394 -2.12485 17.939
895 1 22.2969 -1.88944 3.05678
1176 1 10.1742 -2.65574 15.661
984 1 -5.65169 13.3838 5.00188
917 1 11.7702 -3.66017 4.21826
160 1 25.2958 12.0932 4.76473
1918 1 13.4939 11.6262 3.73942
672 1 12.4189 11.7017 17.5029
1241 1 12.8749 12.7809 17.0887
864 1 14.326 -1.00008 5.25525
1466 1 14.3425 0.455733 17.5763
123 1 14.8437 -0.50269 3.50388
1796 1 1.15407 11.9733 3.49997
386 1 -10.793 -2.76026 4.27308
1254 1 2.20982 13.4678 3.45112
1385 1 2.05087 -2.1455 3.2562
739 1 2.77167 25.638 4.35492
674 1 4.10799 13.2766 2.52671
1542 1 3.86034 -1.90884 4.0765
839 1 4.41056 -0.804465 4.076
737 1 -7.22183 11.9615 15.982
1553 1 8.24083 -0.0191317 2.31156
1251 1 -6.69423 12.9074 15.7666
1875 1 23.2856 -0.905811 2.8695
1261 1 7.60624 12.1001 2.43698
1757 1 8.58611 -1.07389 2.27349
38 1 10.4179 0.755221 -9.83596
243 1 8.24194 0.743457 -10.5942
185 1 10.9456 13.0806 3.15032
359 1 12.1704 -0.60136 2.80774
1039 1 13.0654 0.1578 16.7858
607 1 26.1782 -0.0737818 4.10685
1271 1 13.8257 12.978 17.3451
1096 1 15.4168 0.4663 3.97721
301 1 13.1015 16.314 17.5173
1653 1 2.33751 0.0434263 4.92503
795 1 17.0491 -0.0237933 -8.10261
1939 1 3.92342 0.904191 18.4201
1380 1 4.24265 0.37298 6.48091
1214 1 18.4284 28.3339 19.1941
237 1 6.30987 -0.402136 -9.13795
230 1 5.60336 1.81732 5.6129
811 1 4.54306 -11.2101 5.71524
389 1 7.01053 0.0254897 5.35018
12 1 6.88608 13.4193 6.52974
2033 1 7.44757 14.9146 6.01816
1586 1 -7.38817 0.980534 16.7259
162 1 7.20638 0.652033 -9.81711
871 1 -4.85644 13.4418 3.16081
1416 1 7.89106 14.465 4.87038
876 1 8.42659 28.6183 5.61144
719 1 9.27222 13.8265 4.03534
363 1 9.39106 1.12627 3.89159
1947 1 9.01067 1.41237 18.5592
1193 1 10.2488 14.3835 20.3987
1967 1 13.5452 14.2795 5.62746
1150 1 11.5822 13.1691 4.82962
1366 1 11.4044 14.9352 5.03103
1445 1 -2.66738 14.4497 7.58308
635 1 24.5779 0.702961 5.77971
299 1 13.3443 14.064 -9.71529
1479 1 -2.20683 28.6905 3.9591
296 1 0.209177 2.34645 -8.78508
940 1 -11.8375 1.12427 4.79611
1662 1 13.4177 3.5496 4.9391
488 1 0.716187 16.5346 4.10291
205 1 -11.337 16.0673 5.84316
692 1 3.26542 2.69963 5.11726
1677 1 3.01521 15.2478 4.99478
492 1 3.66333 28.453 5.86276
174 1 6.30342 17.1419 4.65462
1136 1 4.99208 0.629995 4.40274
1237 1 3.5338 16.4621 3.84259
756 1 6.23891 15.372 3.91528
1965 1 7.44037 15.6807 17.5228
229 1 -5.428 17.9501 -9.90762
610 1 -6.97701 2.15069 5.42819
1357 1 8.27612 16.7942 3.83222
1810 1 9.50387 1.63371 19.5464
1846 1 7.92442 1.91052 4.89179
1568 1 8.83239 2.38787 19.0057
891 1 23.6468 15.5991 18.2599
1884 1 9.20567 17.5465 19.1683
670 1 10.2743 2.95922 -7.3708
357 1 10.5945 1.75587 5.49992
410 1 -0.957204 16.4231 5.17458
1427 1 -1.27566 3.78345 4.9109
505 1 13.2059 2.81283 20.6245
2022 1 11.8414 17.9885 20.5882
1528 1 -0.0504498 16.5224 19.5668
282 1 0.820863 -10.5813 -8.23221
1835 1 0.618337 3.89386 4.72393
520 1 1.69166 -11.4735 3.24416
1376 1 0.828772 4.18842 5.70101
1587 1 1.69539 3.40299 5.84906
446 1 14.4049 3.18206 -7.10477
1348 1 3.84488 3.282 4.63942
1689 1 18.54 4.38654 19.3559
1534 1 4.66148 16.4459 4.38501
331 1 7.08215 4.4073 -10.335
734 1 7.1717 2.70082 4.66998
1756 1 9.60361 18.346 6.01028
1538 1 9.42701 5.14456 20.616
330 1 11.5879 2.20057 5.63268
1488 1 -3.57881 3.86175 4.97657
1754 1 10.8869 16.8025 5.34954
1347 1 -1.22869 1.76468 4.48025
148 1 -0.225289 17.5885 5.9522
1081 1 15.0694 18.9011 5.88593
1323 1 1.50063 4.67546 4.74578
821 1 -0.0379847 18.2958 5.06897
1743 1 3.61547 17.8181 5.16882
764 1 15.7383 18.6811 6.58649
955 1 2.30152 5.599 -8.04585
261 1 4.34043 5.25344 5.64018
660 1 5.3174 3.83642 -9.25749
1315 1 -7.99338 4.71873 4.90916
459 1 6.70636 4.31014 4.90022
1656 1 5.6697 -7.70698 6.64013
748 1 -7.66558 18.5955 6.15084
1324 1 -6.32293 4.95293 -9.38626
1657 1 7.24205 5.81855 19.8565
1643 1 8.57093 -8.95229 5.48808
1495 1 10.6553 18.3754 -8.53308
1110 1 21.6098 4.0074 18.4993
788 1 9.12835 5.6876 5.505
527 1 9.29699 -11.079 6.48484
1985 1 -3.60266 6.57528 18.8905
773 1 12.7092 4.42602 5.5827
484 1 -1.76167 4.9404 6.06587
135 1 -16.7725 17.8352 19.6489
774 1 12.2839 -6.92336 19.1149
509 1 12.5591 19.4023 5.06918
1775 1 14.1189 5.66183 18.8624
1013 1 14.7607 20.7932 4.79723
1418 1 1.67339 20.0332 19.4169
1746 1 14.2518 7.41205 3.68427
1092 1 -11.6388 -6.33637 19.2263
390 1 0.372493 6.97126 5.56405
1659 1 2.93778 6.69872 5.72116
1320 1 3.37109 5.21316 5.32504
790 1 3.88358 6.25973 -8.16668
1381 1 -9.12462 4.77271 18.405
1457 1 4.32004 19.7849 17.273
149 1 -7.4629 5.86857 -7.9538
6 1 4.80285 -6.89794 6.97578
558 1 7.99394 19.5828 5.40824
1017 1 5.97236 20.4032 5.1874
523 1 6.6476 6.03458 20.6768
1519 1 6.87716 21.5182 18.9597
75 1 -6.09948 8.79609 5.17458
70 1 -5.05686 6.59252 5.05026
1228 1 -4.38832 5.96399 4.35313
1352 1 -3.4611 8.70124 4.95985
1250 1 11.2284 6.52277 21.2277
658 1 -4.44366 9.16086 4.63503
246 1 -1.26213 19.6076 -7.52212
1484 1 -1.70188 7.95752 5.52603
1289 1 -2.89975 -6.57072 6.1224
97 1 -0.41101 6.74328 6.43943
1276 1 0.59406 -5.61484 -8.77193
1688 1 -0.381731 7.72379 5.35876
1086 1 11.8817 -6.6898 6.33169
408 1 27.4644 7.79174 -7.16705
1815 1 14.696 7.58878 19.7137
1219 1 13.3655 6.51309 4.89618
735 1 1.15333 8.59223 6.07992
1665 1 2.0154 8.21692 6.31814
816 1 2.59665 -4.62215 5.55631
317 1 4.01246 -6.40131 5.5236
813 1 -10.7118 7.76215 5.31307
481 1 -9.21058 6.86485 4.61884
1168 1 5.38476 8.95003 4.6211
190 1 3.14225 8.43308 6.14556
937 1 6.47301 9.36734 4.46623
542 1 6.59192 -4.81482 5.47135
1873 1 6.11583 7.98055 19.9512
342 1 8.01065 -4.02389 5.6283
1184 1 8.31782 -4.15429 3.95098
25 1 7.7205 -4.75482 -7.45997
1148 1 7.08304 23.5495 5.08944
244 1 -4.37831 8.88755 2.98059
1207 1 9.22898 9.89837 19.1626
1397 1 9.99396 7.70231 19.0397
835 1 -17.4359 -4.33762 -7.40364
1477 1 10.8152 8.214 17.736
76 1 11.379 8.77513 4.86098
1369 1 -2.34808 8.4597 7.03933
958 1 13.008 8.97752 5.29617
832 1 12.0079 9.11727 6.02769
1722 1 29.0999 8.30291 5.22301
1811 1 0.637757 -3.85555 3.3423
545 1 1.47284 9.06013 4.69288
990 1 15.847 9.81344 -8.4957
1950 1 29.0263 -3.48164 17.8114
54 1 17.0326 10.563 -8.13785
528 1 4.0814 8.3959 5.92942
1303 1 18.3467 9.24474 5.34927
2012 1 19.7609 -2.33904 5.87735
1953 1 3.8599 9.79675 7.32508
231 1 -9.18302 23.8456 4.90513
541 1 5.03671 -4.5158 6.56896
1849 1 7.06852 -2.74019 5.6732
684 1 8.76927 24.7358 5.11613
397 1 7.88899 -2.51321 7.51166
280 1 8.50663 10.4831 6.08305
729 1 8.55203 12.2116 20.5113
1928 1 -3.74299 12.358 5.41927
119 1 8.12825 11.3831 -7.54906
428 1 -2.16825 8.97496 3.81646
1422 1 -1.22305 13.2455 20.7669
1124 1 -0.0860545 -2.93866 19.8286
1238 1 12.018 9.73839 5.25756
1642 1 -0.255801 -4.68754 -7.36154
134 1 1.04692 10.1701 -8.70543
526 1 0.798823 -2.39714 4.3567
728 1 13.9992 23.36 4.51788
688 1 2.97097 11.5634 5.34081
899 1 -11.9434 11.439 33.6229
532 1 14.7775 10.5922 5.877
1442 1 3.80115 10.4237 17.8853
1701 1 3.97467 11.2133 4.98006
1144 1 2.28895 -3.17959 6.12973
1234 1 5.34136 10.9867 5.0208
1475 1 -7.33622 10.0933 6.94078
924 1 7.23621 -0.34762 4.23161
1730 1 7.75454 -1.76861 18.8706
1277 1 20.8936 12.738 19.2641
56 1 9.27754 11.6128 5.96112
1901 1 8.62773 12.3392 18.4692
679 1 10.5788 11.64 4.91393
2009 1 -4.00315 11.8232 3.39245
1530 1 11.9002 24.448 5.29658
313 1 27.3981 12.1487 4.61408
1959 1 -3.09632 23.863 5.31255
1869 1 15.3561 24.9378 21.0079
1638 1 1.74882 15.0339 19.6376
1278 1 1.67055 12.0299 4.9466
1850 1 14.5481 -2.15468 19.3117
1104 1 14.9001 -0.114441 -9.01278
67 1 1.13657 15.0728 4.05015
796 1 1.98848 -14.5886 4.33769
1290 1 1.89591 -2.69816 5.30822
1964 1 3.2157 -0.341959 18.1534
1935 1 17.7004 12.63 18.6144
1712 1 3.46563 13.0657 6.82082
1767 1 4.45173 13.51 18.5791
803 1 5.11845 -1.31052 5.51216
892 1 5.30391 12.8591 18.3361
210 1 17.4712 12.5753 -10.3353
512 1 18.0035 12.9856 6.22447
13 1 5.69393 -1.11729 3.71286
412 1 21.8378 0.0827777 -9.69334
970 1 8.96006 0.419207 5.12821
858 1 8.09473 13.524 6.03549
437 1 9.48961 -2.08227 4.36439
950 1 8.02684 12.585 -10.3505
534 1 -4.24926 -0.851868 3.97052
324 1 -3.5122 11.9657 -7.14571
975 1 10.8073 13.3306 19.4005
1791 1 24.3161 12.5861 4.24269
873 1 11.982 13.8866 5.45149
598 1 10.7489 0.286369 -8.81456
1758 1 14.2734 13.6162 5.85614
1634 1 -0.925684 11.5191 18.5599
1433 1 13.8914 -0.104595 18.4076
1995 1 0.888357 15.6047 5.93347
838 1 0.815871 0.923176 -7.52215
1336 1 2.27108 1.51273 7.88597
212 1 2.67366 0.824391 -8.00987
887 1 15.7785 0.588229 -6.88339
579 1 17.5567 2.25448 6.96164
1766 1 3.86807 13.5584 8.18328
1533 1 17.5114 14.5841 20.965
1407 1 19.3217 2.12622 20.3439
889 1 -7.76341 14.3297 5.70334
81 1 6.26998 1.22496 6.55517
1236 1 7.14527 14.3841 7.05297
1650 1 8.19944 14.5234 6.72559
496 1 -5.6958 14.7349 21.5971
1651 1 7.26951 1.91485 20.7871
1388 1 -5.16469 1.84048 6.87835
2036 1 -4.34369 13.9097 20.1611
1524 1 11.9883 15.2921 6.61013
608 1 13.0044 13.195 5.528
1751 1 12.2924 28.5832 5.66567
2024 1 -0.938883 13.8122 19.9075
1125 1 0.0866315 1.91062 20.211
238 1 12.9687 1.09783 6.39961
963 1 -0.0570048 16.748 21.6447
415 1 16.4989 15.0097 6.69036
754 1 15.186 16.0404 -7.15987
749 1 2.94233 2.88578 6.55031
1048 1 0.559184 0.789451 7.17234
1593 1 16.2052 2.42492 21.0116
1852 1 3.95516 1.65263 21.7305
1508 1 3.51344 2.20056 6.03186
1400 1 18.9471 0.622647 6.74563
1786 1 18.4782 15.5887 21.2025
753 1 4.83217 16.4442 6.82711
2028 1 4.46806 15.092 6.55672
1521 1 6.34178 2.4659 7.69909
44 1 -6.9903 1.38232 -5.78322
349 1 21.5856 2.17247 6.03726
47 1 7.60361 -9.88003 -7.21018
1991 1 7.92168 16.6843 5.3257
911 1 10.8477 1.54764 20.087
1667 1 9.19575 1.09758 6.99698
1019 1 10.2005 2.52354 8.05122
752 1 -0.892547 14.37 4.8763
981 1 26.3495 15.826 -7.53523
1041 1 -1.11155 -12.4563 8.55901
568 1 12.8582 3.11356 -4.88515
1605 1 -1.23093 2.15964 -6.00033
1986 1 0.367543 15.4614 7.57158
158 1 13.6547 3.81743 7.07279
314 1 14.9563 4.08966 -6.93823
1243 1 2.41255 4.14654 6.95509
1230 1 3.69345 17.0509 6.91926
355 1 2.94766 4.55759 5.90076
339 1 4.66236 16.56 7.90582