ITEM: TIMESTEP
205000
ITEM: NUMBER OF ATOMS
2048
ITEM: BOX BOUNDS pp pp pp
0.0000000000000000e+00 1.3679807573413575e+01
0.0000000000000000e+00 1.3679807573413575e+01
0.0000000000000000e+00 1.3679807573413575e+01
ITEM: ATOMS id type xu yu zu
1526 1 -14.3316 1.66393 27.9848
1731 1 -13.9091 27.0875 13.4479
431 1 0.263729 -12.5051 0.208534
1262 1 0.386629 0.0944252 14.7119
667 1 2.93356 14.3655 0.342555
742 1 3.23905 15.1653 -12.6028
1537 1 17.1657 -12.4529 13.1783
1162 1 16.9855 2.02076 12.4498
1057 1 6.96777 -13.7542 15.3112
1562 1 20.2556 -12.1823 27.5948
107 1 20.9719 2.03145 0.968145
10 1 7.17213 1.01284 -12.5887
2016 1 20.5068 13.4788 27.2387
928 1 -5.47665 0.650973 13.8888
1837 1 -4.9211 -14.1651 28.1795
320 1 -4.54718 1.54327 -0.150869
198 1 -4.70135 27.4248 1.91674
587 1 -2.92603 0.318998 16.8324
114 1 -2.67827 13.8612 -12.309
542 1 -16.7493 -0.253912 2.158
1922 1 -3.66196 0.958054 13.0647
351 1 13.0773 0.363266 14.1964
1409 1 -15.2597 -0.183959 28.1272
906 1 -2.19397 28.0692 14.2728
1524 1 14.8562 14.3923 -12.9725
1303 1 2.65254 15.4492 -13.5383
1822 1 -12.5232 2.24397 14.8725
1174 1 14.5314 0.803076 15.3965
206 1 2.42897 16.2699 12.9587
1274 1 0.555942 17.0529 1.61936
655 1 4.33883 15.3046 -12.8001
227 1 -11.2089 15.9176 14.9738
78 1 4.41431 -13.0168 -11.7111
620 1 3.76365 2.71079 28.4286
1058 1 -8.97555 16.1898 14.1825
637 1 -6.77752 2.1508 -0.93889
1682 1 22.4522 16.186 28.3675
113 1 7.96842 16.7338 1.50899
1027 1 -4.52623 1.28219 1.44422
603 1 8.29111 1.67208 0.510923
1448 1 9.33736 -12.949 0.401503
649 1 9.81425 15.8126 28.5992
1053 1 24.6249 -12.8688 2.19261
784 1 8.90993 2.16624 -25.1164
332 1 -16.2466 15.5662 2.18293
895 1 37.5495 1.12207 -12.4303
660 1 10.5309 3.96094 0.871751
1508 1 -2.51575 15.1272 1.22177
1421 1 -1.6799 15.2425 0.372788
967 1 10.0157 15.1898 0.370444
1628 1 -0.0528437 4.1378 1.35569
1927 1 1.68584 3.2789 15.128
795 1 1.94106 -8.55844 2.22763
1200 1 2.27174 5.16293 14.9613
1703 1 -9.86417 2.24733 0.092015
809 1 -23.4408 -9.16335 2.53021
522 1 2.94813 18.2594 13.3248
389 1 22.4789 -10.2458 13.0216
923 1 -7.28347 17.411 28.247
1551 1 4.58094 3.38317 1.084
1194 1 7.18124 30.4575 14.4504
434 1 6.30912 3.96522 16.5022
2023 1 -6.9419 3.99978 -11.7658
1812 1 7.52466 -11.3761 13.5652
1075 1 22.2658 16.1745 -0.188876
1866 1 8.94329 -23.6834 28.9632
1377 1 -5.93877 -9.63315 1.13978
393 1 10.5348 5.23437 1.50657
174 1 9.59607 18.1115 14.6382
1896 1 9.55049 -10.2409 28.0238
913 1 11.038 -9.23331 15.5723
704 1 11.4448 2.47535 0.145661
132 1 11.6641 3.26104 14.6758
624 1 0.0695685 2.698 -12.7738
1013 1 25.4904 31.6731 0.991141
1525 1 12.5523 2.47404 14.7642
999 1 -13.9401 20.0501 1.51946
1031 1 -11.7322 -8.78803 -13.7883
1109 1 28.4805 5.64534 1.25507
1177 1 17.3787 -10.3309 13.8379
796 1 -9.94934 -21.9421 -0.0971284
571 1 5.05082 5.14836 1.2544
1897 1 3.31977 -22.2751 -14.8721
723 1 3.55046 3.93585 1.32864
586 1 6.02788 18.4355 0.547896
9 1 17.8017 18.4925 0.828649
1888 1 5.98496 5.74584 14.3044
252 1 6.07676 6.12539 -0.355811
1764 1 -6.62066 19.1725 -27.0867
112 1 -6.79974 18.4638 14.8673
1576 1 -5.14756 3.60005 14.1385
1425 1 7.48223 18.3833 1.9836
56 1 -4.45623 20.4022 -11.6122
617 1 9.89868 6.79991 -12.826
1481 1 -1.11786 18.4941 1.48731
1664 1 22.622 18.9604 0.0536179
1404 1 -1.83868 -20.9373 14.4564
71 1 -1.47184 19.0127 0.45023
820 1 -0.225738 4.32751 14.1036
947 1 11.1962 4.21428 16.5731
1599 1 39.0333 6.66561 29.3576
438 1 26.5534 4.90365 -0.343717
991 1 13.0168 17.982 -11.2979
339 1 12.6376 31.0544 14.9093
1402 1 27.7977 -8.1256 13.9805
855 1 0.767712 5.45601 15.931
74 1 -12.0382 21.0855 16.0166
1715 1 0.646126 -7.23285 1.86798
140 1 16.7103 33.9165 0.344896
1323 1 2.56381 -7.93459 -0.157097
163 1 -8.58325 20.0182 0.0274771
1100 1 4.59932 7.38669 14.2184
330 1 18.6913 -8.478 0.0765313
993 1 4.00845 6.6256 -13.5906
1901 1 6.46244 8.48994 27.3599
265 1 -7.38524 -5.37941 1.87789
639 1 8.91496 6.27274 0.815999
1612 1 7.50643 -5.78466 13.8963
975 1 7.13247 6.71678 27.4923
326 1 -18.3311 7.47347 0.484843
912 1 -5.5087 20.8032 -25.8327
1374 1 -19.3986 -7.54842 13.9467
719 1 10.0658 8.34078 0.771236
1340 1 -4.95475 22.5146 29.1785
197 1 -3.24174 7.59036 1.50895
1291 1 -16.2143 -6.48467 0.969548
1929 1 -1.79571 21.2159 14.1727
469 1 -0.89133 21.7774 15.6019
826 1 -0.536075 5.82756 0.584973
1189 1 -13.6362 -8.4407 15.0409
1993 1 -13.4757 21.1985 -0.0975432
1738 1 2.22358 -7.07982 12.7686
93 1 3.07533 18.5604 -13.0355
1543 1 -12.5985 -7.02776 0.86302
1497 1 17.4475 8.43638 -0.0361185
321 1 16.3081 -5.67366 -13.3069
936 1 1.85697 20.7494 0.401487
1926 1 -9.94133 7.12627 29.6519
1574 1 3.58864 -6.06193 27.9559
536 1 5.3872 21.8933 13.7933
656 1 19.5739 21.7769 28.3375
973 1 7.29703 -4.87942 13.2
289 1 20.5233 -6.32662 -26.4618
209 1 9.41006 8.7207 -13.9105
98 1 -3.15579 -6.29979 0.136004
1118 1 8.83241 9.44638 -0.820257
1246 1 8.67202 9.46309 0.308617
1108 1 24.2298 -17.7578 0.471144
532 1 10.1618 -5.56903 -0.550736
471 1 -15.7881 -4.55093 -0.695646
177 1 -3.29253 8.9765 1.53055
1428 1 10.9636 8.31831 2.22153
1846 1 -2.07877 23.0197 14.031
1623 1 26.3774 9.40276 13.3554
1949 1 13.997 10.6216 0.61339
716 1 0.0764119 8.58769 1.92128
1298 1 0.996993 -18.9332 13.6145
1223 1 1.60597 -4.52812 0.734575
1784 1 3.68665 22.5543 14.5766
1783 1 17.6935 -3.28006 28.1451
22 1 -7.50661 -17.0194 14.0052
219 1 19.6276 11.3509 13.8493
1683 1 4.40792 9.31088 14.05
1931 1 -20.5116 9.32331 14.1394
1803 1 5.65273 -4.13145 13.3605
1923 1 -7.06809 11.8519 1.16645
1633 1 -6.70982 -16.257 14.1303
18 1 8.72324 23.5325 1.512
1725 1 9.60867 -3.68529 0.246621
1579 1 10.9582 11.1615 -0.441748
77 1 9.90767 -3.44086 1.22552
1327 1 -2.40929 10.4434 0.276832
87 1 -2.97583 9.94211 13.1091
1144 1 0.91431 -6.10651 1.5066
1495 1 14.4801 9.76718 -12.1952
794 1 -1.60913 -3.62929 28.3475
1626 1 14.6164 -16.5221 15.1523
787 1 1.56499 -16.7588 0.641187
910 1 14.7998 11.9329 -12.0702
1886 1 15.7697 25.1126 15.449
1824 1 29.7827 -2.459 14.5137
636 1 0.136365 10.29 16.0612
612 1 -11.0754 12.34 0.374092
1805 1 30.8431 11.2848 1.08982
756 1 3.60829 26.0516 -12.9324
778 1 4.61258 -16.2002 15.1138
1700 1 7.07158 -17.0947 26.9851
1772 1 -9.48769 -2.39533 0.120943
104 1 4.88789 -0.942887 15.4381
489 1 -4.94404 12.7166 2.26874
804 1 -5.48091 -2.25244 14.0336
1609 1 8.02037 11.4969 13.0338
1413 1 -3.28139 12.4877 0.601377
23 1 9.53049 -2.42514 -12.8661
1606 1 -1.79905 11.3445 14.2044
898 1 13.3888 9.97087 14.7667
1680 1 -15.8341 12.4541 14.3396
646 1 -1.16076 11.0673 14.9613
275 1 12.6808 10.2775 -13.4536
1278 1 13.9369 25.6123 0.289439
949 1 -0.985082 -0.835591 -0.650457
193 1 -12.3738 11.599 0.517375
485 1 -0.0336422 -1.15689 12.7767
718 1 2.16091 14.028 14.637
1777 1 15.9563 26.9242 15.275
688 1 3.44272 0.488512 1.39687
1415 1 4.00644 13.3935 1.61861
1878 1 16.571 -0.354025 27.9933
2027 1 4.58371 0.402012 -12.7565
1668 1 -8.76401 27.7584 16.4549
1726 1 -8.90306 39.4993 27.8983
1934 1 -6.02626 -0.891134 -12.0841
1948 1 34.0815 12.9329 28.2176
115 1 7.11622 12.4517 26.8973
1254 1 6.12836 28.0307 15.5076
465 1 7.32022 25.808 0.456458
1410 1 7.77892 13.2856 -0.218923
402 1 23.0477 12.2801 14.4314
614 1 10.4696 -1.83927 15.1717
1036 1 -3.70925 13.4741 1.34259
1855 1 26.0133 12.4688 2.46975
324 1 -1.09491 -1.59204 -12.7227
94 1 14.3969 12.8408 0.507097
1152 1 14.7896 14.1399 17.9367
1065 1 1.03981 14.6776 2.82662
1987 1 -11.5969 1.33865 14.6389
838 1 -10.7077 -13.0856 -10.0377
1055 1 3.67619 0.676514 -11.0255
1785 1 2.709 14.7037 15.6358
111 1 5.04203 15.3282 -11.054
106 1 18.8208 1.29211 15.1933
1457 1 6.527 27.0869 16.2545
605 1 5.68277 15.9125 16.9009
1753 1 6.0736 14.9668 2.69548
1203 1 8.04862 1.96099 1.6815
1492 1 35.5348 -26.6179 15.2366
1138 1 10.9102 -0.626167 -10.3373
1770 1 7.5044 0.0702297 0.74939
1349 1 -17.3174 15.5597 15.8985
1841 1 25.5197 -0.144411 -10.8878
359 1 11.9617 1.32218 -10.5009
1041 1 -13.4846 -40.9346 2.22127
833 1 -0.149031 -14.1096 -10.5188
331 1 12.0922 12.9988 -12.0124
1882 1 26.6959 0.762919 15.1434
621 1 -0.786511 -0.340622 15.9154
231 1 -0.108988 28.5136 16.1899
1952 1 13.3231 2.35121 30.2607
1941 1 0.594467 15.687 2.13124
513 1 12.5456 -26.7411 2.63064
843 1 56.3484 1.30817 15.6762
706 1 2.71384 15.6518 -11.3594
1957 1 1.14611 3.16792 2.63257
1881 1 15.4123 16.1046 15.8015
428 1 3.68033 29.8264 16.6751
221 1 17.5799 15.6062 2.06778
748 1 -8.86201 16.4392 2.81842
1735 1 -8.97013 2.51201 1.55469
1226 1 33.6703 16.1639 14.7215
1577 1 -8.14318 3.14155 14.747
1801 1 5.5686 16.8481 -0.0348519
1971 1 -7.80538 15.8999 -11.5907
763 1 20.8679 3.38588 2.82674
1758 1 8.95052 28.5322 2.47697
941 1 7.70368 2.61904 16.0967
935 1 6.81092 1.69031 1.87547
764 1 -4.06812 30.6205 16.121
44 1 -3.13231 2.11987 3.96152
1930 1 -1.48867 2.64707 1.99328
1567 1 24.559 1.43257 -10.5484
1542 1 -0.742582 1.46908 3.57535
1116 1 -1.76556 0.477011 1.63416
1006 1 -27.6141 30.2493 29.3169
444 1 -13.451 -12.0531 14.8805
342 1 12.9915 -11.7715 15.6139
981 1 28.4496 17.5591 -9.95283
1256 1 -11.4392 3.66347 2.34237
1076 1 -10.8446 4.31309 2.96027
1351 1 -24.101 16.5854 15.6081
403 1 1.34252 17.9058 15.2984
1687 1 -9.38003 3.37379 43.147
405 1 3.07817 18.7272 -9.95372
623 1 32.2756 -9.78899 2.82496
1958 1 -8.88372 18.9245 2.20198
1326 1 -20.5435 16.5764 15.6271
443 1 5.66724 31.7111 -9.9218
1299 1 -5.74877 3.8669 15.9496
811 1 22.2734 -24.3103 2.71475
1228 1 10.1932 3.95883 2.7993
2028 1 -3.63718 17.6953 15.4552
927 1 -3.65071 3.05258 15.214
1561 1 -1.80882 17.4597 15.7163
577 1 12.0199 1.55429 1.78809
1953 1 -2.8729 4.20072 4.07529
791 1 12.8046 18.7719 30.8539
2036 1 -11.8289 19.9623 29.4831
1209 1 2.68414 3.34754 1.14299
1583 1 0.160614 31.0688 29.8335
1225 1 18.0586 5.80332 0.703566
1810 1 3.67702 5.26616 15.2468
1761 1 4.32415 6.65126 1.53874
558 1 4.06739 6.0822 16.1939
750 1 4.92549 17.9119 1.86809
1982 1 20.3325 6.18228 2.76792
216 1 6.83487 19.8005 0.956028
1070 1 8.45756 -8.86608 15.5665
1412 1 6.29584 19.3057 29.0522
1196 1 -5.99758 19.2782 -12.5202
35 1 9.49762 -36.0691 1.7929
1790 1 8.36956 5.97525 1.87332
1691 1 -3.87506 5.96539 1.45565
1051 1 38.6829 5.754 2.21959
885 1 11.6235 18.9425 -12.3404
766 1 -1.56469 4.84618 2.55946
996 1 -0.395621 19.1369 16.0679
445 1 0.0630877 3.53155 -10.0885
1156 1 -12.7807 32.901 -10.2101
420 1 1.91136 19.329 -10.4111
350 1 40.9912 -6.19895 -12.8104
309 1 -11.1992 -7.2948 14.8497
421 1 3.32469 6.18737 1.84853
781 1 14.9311 -4.69599 3.95671
155 1 16.5077 6.20312 -10.3987
1202 1 18.4611 7.14718 16.1219
1517 1 19.4745 7.79452 16.2993
745 1 -8.34498 6.0899 15.1784
1802 1 7.24066 8.48253 16.2584
694 1 -5.566 6.49765 2.67446
217 1 5.865 20.6747 0.460536
963 1 -5.98591 8.57778 28.9521
1066 1 21.7847 -19.4922 2.3042
42 1 -17.7398 4.84388 3.34658
476 1 -2.88363 6.29877 -12.3149
1260 1 -4.38701 21.6489 15.1285
2046 1 8.08766 9.3631 16.0016
1797 1 12.4999 -7.83388 1.86735
246 1 -3.78292 8.38865 -25.1035
1977 1 11.6615 6.84478 30.3412
1029 1 -0.490368 -5.26517 3.23118
1555 1 11.7582 -5.74629 1.53678
845 1 -1.16245 5.9592 -10.8029
1422 1 -0.434988 8.49643 14.7051
475 1 -0.183532 6.51881 16.2083
555 1 15.7421 7.24658 15.0878
1501 1 15.0374 20.1771 13.4901
1038 1 -0.248204 -19.9356 2.99019
80 1 -11.2103 8.99256 14.8807
1462 1 -10.5731 7.1541 -12.2283
652 1 2.98412 8.27046 -12.1305
314 1 5.49982 7.18429 -25.7848
1788 1 18.1577 22.8107 1.63464
138 1 4.87438 -5.53781 -11.528
671 1 32.2727 8.42908 14.718
2047 1 19.4553 23.0991 28.1107
705 1 4.02867 7.93354 15.1779
397 1 5.32433 8.80544 16.6789
680 1 -6.15898 -3.79388 14.6078
1974 1 20.5929 8.509 14.7274
2001 1 8.34253 -19.3575 0.979764
408 1 19.1634 -4.43386 -11.6542
1650 1 7.45457 9.98737 16.7594
1587 1 6.78172 -4.48531 15.4937
1317 1 9.04832 9.06693 4.45435
1356 1 10.6191 -4.78454 -0.31612
1204 1 23.4771 -4.94959 16.9659
1883 1 10.6318 8.59437 17.558
171 1 -1.16675 22.0112 18.3873
2043 1 10.6874 9.31376 16.6029
715 1 12.418 7.79921 3.61792
1216 1 -0.00424542 -6.30519 1.97569
316 1 11.1714 -3.86299 -25.9381
1876 1 15.2071 23.7049 3.50542
1160 1 -1.3713 -3.42061 15.6552
26 1 14.823 -5.10764 -11.9663
502 1 15.9649 9.38563 3.61267
1455 1 -11.2368 23.7653 0.73276
1689 1 28.9731 -5.58139 14.5847
953 1 5.15004 -3.63594 1.32468
600 1 3.36109 10.3158 2.61935
1054 1 17.0856 -4.24634 3.11941
980 1 5.07025 11.8499 -11.5086
1533 1 19.5018 24.6083 28.518
607 1 31.7531 10.3324 1.97898
1257 1 19.9836 25.1389 2.22327
273 1 21.2036 11.2757 2.84239
1302 1 19.0378 9.844 3.01228
121 1 6.5364 24.5892 3.20843
204 1 -6.26357 10.3384 -11.6926
841 1 -32.6266 -3.21121 -11.1739
1103 1 21.8874 -2.82154 3.65658
792 1 22.9272 -17.3041 16.4655
703 1 8.42335 -2.80367 1.27954
1588 1 -4.20459 -15.3112 2.56525
924 1 9.44872 -4.44551 14.7426
823 1 10.1955 10.4055 16.3563
628 1 12.0907 -5.31945 2.58693
2009 1 -14.88 9.09092 14.3827
54 1 12.9326 9.05078 -11.3308
759 1 -1.22897 10.5796 17.0775
966 1 14.654 11.0133 -11.0812
816 1 15.831 23.862 4.33706
335 1 15.4086 -2.09905 3.43945
272 1 -11.8381 -4.13044 1.77894
1093 1 16.0303 -4.43643 16.2485
208 1 2.03466 -3.36708 2.66656
907 1 16.3601 -1.75339 3.82831
1385 1 2.80701 10.5224 -12.0316
1306 1 -10.2008 23.4656 28.7508
1301 1 3.54351 -1.54901 2.92468
165 1 -7.93948 12.4292 -12.5484
41 1 4.25037 -14.4491 -11.0873
952 1 21.0803 -0.521338 3.02894
597 1 5.26908 11.2189 5.40332
519 1 6.5378 -1.19509 15.5749
1411 1 -5.07616 -2.06975 16.1534
758 1 7.64931 -2.27355 1.82065
1950 1 36.4283 -15.0231 30.9076
1507 1 8.03861 12.0617 16.9155
2011 1 9.16404 25.4122 15.2874
1681 1 -30.8377 11.4353 16.7592
162 1 -1.98625 11.8196 -12.1157
52 1 11.3591 10.8164 1.35399
1540 1 -4.00873 -2.55709 15.816
1026 1 -15.5131 -4.69433 1.79303
1889 1 11.3184 10.1612 16.0635
233 1 13.8824 11.6111 -12.3916
1829 1 0.780034 -1.0769 -11.1505
1263 1 2.70429 11.336 16.5077
692 1 1.63377 -0.362623 2.62636
1818 1 1.90747 12.499 1.10268
457 1 -11.0049 27.5356 2.62951
1714 1 30.5268 -0.760967 15.8673
1690 1 2.87982 -1.59882 1.51871
1389 1 -9.78458 12.198 -11.8392
2020 1 5.06463 12.8897 17.2107
412 1 33.5391 -0.706078 -10.1404
306 1 7.3455 -15.0657 16.0826
1355 1 -7.73092 0.300815 30.6269
1394 1 5.48966 -15.5036 31.8927
1516 1 8.49445 26.8085 3.20606
1255 1 -19.2989 -0.246367 15.9828
401 1 21.9742 25.8352 1.1513
2008 1 9.69652 -0.435208 2.85204
363 1 7.14409 14.4882 2.08062
1478 1 9.87386 14.171 29.7194
553 1 10.6145 -15.0443 2.58255
1688 1 9.74162 12.6328 15.5546
1440 1 11.4032 12.0179 3.41454
1155 1 -0.351232 12.2938 -11.9569
1622 1 -1.92823 12.8948 17.7122
689 1 10.9455 11.3979 -11.3466
1939 1 14.0835 -0.78549 15.243
1858 1 12.4283 11.9374 3.38489
323 1 1.86697 12.4 15.7903
1414 1 1.09514 13.2138 4.64996
1498 1 2.18541 15.1434 3.03877
848 1 -13.0361 -12.5148 32.2768
248 1 14.1869 16.2754 3.36509
1814 1 1.34971 15.7423 16.6767
946 1 -11.5784 14.5154 4.1983
68 1 -9.71554 13.2956 4.46535
1661 1 4.24551 15.1297 16.7844
1654 1 4.82152 0.173857 3.91786
1995 1 -8.71047 28.1978 4.60379
539 1 3.97822 14.4724 -9.642
959 1 6.28551 28.582 3.75091
212 1 5.03951 -0.665787 -9.12261
58 1 20.7514 0.783286 3.09787
579 1 22.1155 2.04929 3.13309
1961 1 6.95661 0.890647 18.3899
1131 1 7.43016 1.76869 -8.7587
166 1 -5.52314 0.882354 17.1744
37 1 -4.89434 13.5216 -8.64561
181 1 8.19241 28.5799 -9.1436
1534 1 -4.84328 14.0449 4.15737
595 1 38.2969 13.7571 17.9174
1880 1 -3.41726 0.401849 -8.62956
1023 1 10.0652 12.8403 -8.09568
358 1 -1.75249 0.158128 18.5401
1736 1 -1.41304 28.077 17.7476
647 1 -14.445 -26.9135 18.6969
720 1 0.0789388 0.538746 17.0235
1150 1 0.885748 13.6528 -10.3322
663 1 13.6139 2.25694 18.989
762 1 14.1294 31.3768 -9.17936
329 1 -1.37516 16.8122 3.65153
583 1 1.60121 2.86577 3.9348
1625 1 2.97034 2.95964 4.07609
386 1 -12.7253 -11.3941 18.4023
853 1 2.92502 -11.7894 4.2506
1645 1 -10.5579 1.61712 -7.84334
515 1 3.23013 1.46387 16.7811
1171 1 18.4271 2.04654 3.65435
467 1 5.27658 1.13145 -10.1594
662 1 5.40665 16.8958 17.326
1275 1 7.5328 15.3942 17.2735
25 1 -7.01788 -11.5858 -10.7835
242 1 7.7401 2.66699 -10.1834
1198 1 -4.6441 16.4754 3.85201
195 1 -4.07552 2.21516 16.8311
1126 1 -4.04402 14.7965 16.9601
1962 1 9.93809 3.29374 3.65326
512 1 22.7925 17.881 5.11019
840 1 10.5098 16.3873 2.83284
1548 1 -16.161 -26.2674 -9.55592
1360 1 0.253036 -12.1623 3.91481
1659 1 12.9125 1.43267 4.65521
1101 1 11.6596 2.43916 16.8633
1581 1 -1.5618 4.10346 3.2986
2017 1 -13.5557 13.921 18.0351
505 1 29.0347 -9.97374 32.1009
337 1 -0.909413 17.0337 -10.8868
1531 1 -10.3844 3.43156 2.93883
1782 1 -11.5077 29.9716 18.8727
1701 1 2.24798 16.2771 3.13656
1456 1 2.34234 17.3569 17.2682
743 1 -23.892 31.3331 3.79886
765 1 4.47583 17.2641 31.1496
290 1 4.02034 4.72405 3.53791
567 1 3.97004 2.39902 17.9044
697 1 17.1742 -10.297 5.78872
1649 1 19.05 17.5409 31.9715
203 1 -20.5541 17.6338 17.3167
737 1 -5.68185 17.4145 30.9383
582 1 -20.7748 2.46095 -8.73402
1893 1 7.19863 5.13173 17.5904
439 1 -6.2199 4.37975 2.89173
1536 1 8.68374 17.0194 -9.11089
378 1 5.65799 -10.4915 2.42594
1267 1 9.09331 17.8643 -11.1838
2034 1 9.83221 33.4261 2.7777
1892 1 9.3853 4.05818 17.6297
992 1 10.8916 3.5425 15.8297
1427 1 -3.73724 4.80385 4.72148
425 1 10.6549 5.0153 -11.1022
368 1 11.082 3.12713 -9.90048
145 1 -0.810958 31.2216 17.9735
1616 1 -2.87006 4.16957 5.06156
1056 1 0.614454 4.56264 16.6303
1696 1 26.7396 5.85618 4.5651
447 1 27.4392 -8.54111 4.0182
1733 1 2.78206 31.8613 1.78817
1098 1 16.7018 5.30856 2.53792
149 1 -11.791 18.341 -23.8469
1484 1 3.81405 5.3241 4.62358
943 1 -9.35254 -9.48391 -9.10122
1511 1 19.3516 33.1778 -11.162
922 1 5.86597 -9.10459 1.56595
797 1 4.85236 4.96925 -23.2024
254 1 19.9 17.0231 -9.18334
551 1 -7.09113 -8.60518 2.57728
21 1 -7.55337 -8.2814 -10.0109
178 1 22.0387 4.73597 -10.4073
695 1 21.412 19.1632 2.53527
1313 1 -5.62455 19.4902 -9.92593
1721 1 21.3917 6.43983 18.59
75 1 -5.51031 4.55641 -9.40124
566 1 23.7072 -6.00019 -10.5535
1158 1 22.8045 5.2766 4.18389
817 1 10.4758 5.31918 3.65233
601 1 10.87 6.23097 3.2516
1607 1 11.8831 5.17569 32.6858
164 1 -2.15945 -8.34318 3.28775
1234 1 1.12731 6.6357 16.6505
348 1 -0.824725 18.5907 4.68915
644 1 -10.7192 7.48271 17.5364
11 1 2.67881 -6.09521 2.7343
914 1 1.32039 -21.0839 -9.58239
182 1 17.6602 -20.5201 -24.0133
1433 1 17.4117 7.75688 16.8562
1722 1 33.1272 6.93674 3.48713
1352 1 -6.62907 21.2689 2.07199
670 1 -9.56887 7.77154 -9.46464
1450 1 5.54944 4.67438 2.7331
144 1 -20.9841 6.74132 1.69849
834 1 5.17614 -7.64224 17.3448
1106 1 -6.81177 7.2418 3.13221
1750 1 48.4821 -7.25166 1.87339
1449 1 -5.65873 20.6154 3.84151
380 1 8.88846 -21.5796 3.11036
362 1 7.77859 -5.87956 3.34695
1465 1 10.4644 -5.83573 18.3459
735 1 -16.7834 7.08739 16.207
1095 1 9.19219 6.30227 4.41022
770 1 -3.0809 -6.49311 3.77782
1665 1 12.6227 7.13694 2.32022
1273 1 -0.0705485 -6.53358 4.34907
1491 1 12.1185 5.71749 31.4217
143 1 0.551782 -21.5569 -9.0338
1663 1 14.5364 -5.60908 -11.1304
3 1 0.574973 -4.61075 3.10294
932 1 0.661164 7.83334 3.50504
1087 1 -0.439468 9.74841 2.99233
1641 1 3.68712 8.50323 16.0585
1522 1 15.4432 35.833 3.21354
1608 1 -11.5685 -19.026 15.9297
635 1 30.7788 7.76394 4.96724
1885 1 5.87436 -5.80802 4.09409
260 1 -7.06368 -4.36976 2.8066
43 1 19.4929 -7.05695 4.41489
1871 1 5.86707 -3.75155 18.5666
1869 1 7.92569 22.5209 16.9731
236 1 8.8119 7.7651 3.42362
1600 1 19.6178 -6.26786 5.18885
2037 1 8.89863 22.5239 30.2502
1408 1 11.2926 7.85385 16.7163
373 1 11.8799 8.82459 3.79135
1146 1 -1.11944 6.69664 17.239
1989 1 -29.0153 -5.64354 5.9605
1099 1 13.7884 -21.1686 3.69592
880 1 0.340993 7.31732 -8.37855
873 1 14.8354 23.6198 -9.13102
1464 1 -0.0248915 9.92689 31.3733
1775 1 17.5477 22.8441 31.8641
740 1 1.04252 9.82941 16.2017
1366 1 14.5484 7.12288 4.31304
396 1 16.4333 22.0557 -9.43975
1085 1 4.35759 -3.21856 17.1209
578 1 4.53207 11.1678 4.29885
207 1 18.0436 -4.24283 16.336
564 1 -10.697 8.49974 3.13182
418 1 18.8047 10.7977 16.113
659 1 -9.59163 22.4094 3.491
1252 1 6.55536 9.08894 4.96211
1513 1 6.39113 10.1157 28.7919
394 1 6.20027 10.0621 3.7765
774 1 19.8519 -3.35204 2.546
1168 1 -7.6996 9.02818 -9.7255
1179 1 8.26511 -3.99167 -9.82994
1089 1 11.2112 9.15151 31.8581
1357 1 -3.88142 9.48445 4.07308
673 1 10.9572 10.0073 3.7393
1732 1 -2.3307 38.2067 3.26496
377 1 40.4331 8.95746 5.24913
1446 1 -15.2392 -17.7523 2.99072
1808 1 12.1965 -18.1142 18.7644
1420 1 27.2355 -19.1529 18.1195
1149 1 -0.721796 -4.5122 3.99747
500 1 1.1313 11.0383 -9.61665
693 1 0.165902 -2.78302 -9.36192
533 1 0.27416 11.7319 -11.3739
1285 1 16.9969 11.7843 5.23025
406 1 16.0521 -1.40282 -8.68043
733 1 15.9304 11.2442 -8.82066
860 1 16.4079 10.7395 3.61789
2021 1 -9.67264 12.5464 17.3698
728 1 3.34415 24.9936 2.07568
1898 1 3.00217 9.65975 -8.90397
81 1 19.3341 -0.857707 2.65718
1967 1 32.7309 10.8379 3.62469
1739 1 18.1345 -2.25638 2.93263
849 1 20.2525 -15.2426 2.959
1505 1 -8.08567 11.847 -10.3908
1839 1 7.21232 -14.7671 18.4972
1088 1 -5.07566 25.4822 4.24555
508 1 9.11238 13.963 16.7906
1745 1 -6.16855 25.1261 17.7672
982 1 9.15252 11.1829 3.27395
890 1 -4.67677 -2.86636 4.45688
731 1 9.78488 -2.16166 4.02855
1276 1 -3.8894 -16.9906 -10.0858
1325 1 12.0278 9.84568 4.05873
1618 1 -1.77877 11.2234 31.4093
492 1 13.1377 52.0965 2.52749
627 1 14.0586 10.7331 3.36661
1884 1 13.2795 10.0886 18.7783
1124 1 0.424224 11.8047 30.7366
336 1 14.908 26.0754 19.1872
546 1 1.47036 -1.78869 18.2181
786 1 28.9105 -14.7328 3.62608
1248 1 16.1045 26.2207 16.661
1077 1 15.5512 -13.5567 3.48835
392 1 3.12018 12.9064 3.74944
367 1 17.5594 13.545 3.24018
1102 1 5.90636 13.7591 17.9855
933 1 5.99711 -0.851939 4.69177
1821 1 -7.21906 -1.81585 31.2699
1979 1 6.53662 -0.734166 19.1675
285 1 20.0105 -15.5667 5.08048
1604 1 7.9551 28.7422 16.2974
1494 1 9.55204 13.0057 18.0106
785 1 21.8129 -14.2683 4.22131
1981 1 9.97774 13.7015 17.433
557 1 12.6137 -0.112518 -9.94219
134 1 -1.59123 25.0026 -11.1232
523 1 24.667 13.3152 32.8813
1634 1 -0.607326 12.1819 31.4576
1467 1 28.4113 0.813404 19.6325
1470 1 2.09492 -12.3535 19.5305
872 1 1.69034 -13.0765 5.09305
1258 1 -12.1747 15.4661 3.94467
940 1 2.39122 1.07143 20.6408
995 1 -23.8643 0.547499 19.7026
886 1 3.36131 14.3372 -8.93417
1334 1 5.40951 1.98854 19.0872
683 1 18.4345 1.39233 5.76896
1268 1 5.56095 15.7152 -9.373
934 1 7.70574 0.22541 4.79213
722 1 20.632 13.7028 17.5706
230 1 21.046 14.023 19.419
1363 1 -18.2408 1.54241 4.05949
510 1 8.81893 15.3403 5.26716
92 1 10.1641 15.0875 -9.03838
1778 1 11.967 28.6526 5.12694
710 1 -0.551537 13.2579 5.75591
987 1 12.1158 13.0256 -8.17662
82 1 0.202241 0.256387 5.63556
429 1 26.349 1.98476 5.72365
870 1 -13.9982 -11.7213 6.51151
1293 1 13.5134 30.0105 4.02564
1429 1 1.76571 1.65377 4.87044
2007 1 0.612962 16.6671 19.3599
1332 1 16.9504 2.59934 18.8087
1384 1 4.43379 -13.0707 33.8598
1823 1 2.39816 31.8389 5.81772
565 1 4.12175 15.9751 5.50131
776 1 4.99916 16.4853 18.2174
712 1 4.9553 -11.2509 6.26645
561 1 6.62341 16.2802 3.83227
1744 1 -7.76228 15.5863 19.9409
1444 1 -5.41588 15.8777 18.068
1477 1 20.3058 14.8743 19.3629
921 1 7.63999 2.01408 6.31514
1458 1 7.52604 16.8673 17.9996
1512 1 7.1125 3.95938 4.88239
1365 1 9.10254 3.14476 5.6327
664 1 8.62087 29.1095 -20.489
267 1 -4.36107 -11.0857 4.82073
732 1 10.7358 15.9615 18.7252
1911 1 36.0645 2.70777 20.1697
700 1 11.725 2.6412 5.96021
822 1 -17.4859 16.0542 5.76391
477 1 27.1853 28.6207 19.3065
1388 1 -15.3847 1.95219 17.902
1830 1 14.5025 -11.7995 19.5444
168 1 13.573 -10.4002 4.83714
1370 1 -13.8187 4.00156 5.58017
1423 1 -15.5479 3.83362 4.30638
472 1 2.38507 4.48711 4.40233
1251 1 2.52744 17.0591 19.9274
1308 1 1.77502 3.94765 -6.92528
531 1 4.0871 15.2183 4.71015
101 1 2.73114 3.55253 -8.80626
1242 1 17.4717 3.32231 18.3389
450 1 -11.0145 4.30175 -6.57723
1854 1 32.1101 -22.3848 -6.50992
1345 1 5.66806 -10.6569 19.1428
1629 1 18.5973 3.85112 19.2188
1875 1 21.42 -10.9845 7.21672
632 1 33.2379 3.9366 -7.85595
139 1 8.12073 16.3061 -8.25963
414 1 7.6401 18.4755 -8.5258
468 1 -5.06561 17.707 -21.0186
2035 1 -3.66672 3.85247 5.72898
867 1 8.38327 4.65593 20.7891
1804 1 9.22085 3.93816 7.33304
4 1 -17.5989 16.9883 -7.06438
905 1 -2.92656 3.0328 19.4188
1963 1 10.7455 18.2996 33.4213
978 1 10.0881 16.901 4.7202
1988 1 12.6662 2.6784 18.3191
1296 1 1.78368 5.61667 18.5964
1792 1 1.09692 32.2404 18.7207
1601 1 1.09293 -7.46172 5.70634
1773 1 3.16786 -7.75659 6.09611
1887 1 17.7122 5.38402 5.53084
1835 1 -9.08389 5.98399 4.67487
1907 1 17.6346 33.0351 -9.96888
1554 1 18.0698 -22.7408 6.32344
815 1 5.48351 5.82922 7.38769
295 1 -7.01907 19.236 4.8808
1720 1 19.86 18.0734 4.70283
1799 1 5.66066 -21.8546 4.65742
99 1 8.34185 -8.20543 -22.5325
1529 1 -5.06479 7.13401 4.84938
799 1 -4.34906 5.70158 -8.38495
888 1 38.2327 -21.4734 4.44991
1631 1 25.2934 4.80046 -9.31324
1416 1 9.53335 -8.93582 -7.68019
274 1 -16.5252 5.21153 -22.2042
346 1 -0.000650962 -8.28402 -8.31122
903 1 -1.00729 19.4899 5.51624
687 1 13.9508 5.87954 20.1239
1300 1 3.34072 -6.88947 18.9714
865 1 1.89227 7.84596 18.1878
942 1 15.298 -6.84604 5.01241
2013 1 15.4558 19.0636 -7.78324
1632 1 29.6916 -20.6616 4.32792
278 1 4.9761 -34.0608 4.06869
257 1 2.76774 5.34297 -8.6306
1000 1 4.98051 21.3668 18.6059
1214 1 30.9271 33.8053 -9.40688
858 1 -8.76551 21.4993 3.3403
1282 1 5.42639 -22.6041 -8.36724
1220 1 6.87302 33.6243 17.6484
777 1 8.28474 -6.29115 -6.759
868 1 -4.65934 6.84688 30.438
1183 1 -17.4822 -7.18682 17.3781
698 1 49.5426 21.6289 6.03933
503 1 -4.71805 7.03303 -7.45102
1894 1 -15.5547 6.15031 18.6299
1192 1 25.1158 7.9238 17.9148
1852 1 -0.231849 6.41307 19.4186
1475 1 -15.6277 7.49855 5.08308
721 1 12.1142 20.5522 5.78439
775 1 11.7528 6.82986 17.879
69 1 1.71432 -6.5082 -7.56181
1178 1 14.661 8.20688 4.76464
1230 1 2.08476 8.95508 18.5399
1046 1 2.09598 -6.81313 3.36654
1815 1 18.0203 -6.66125 18.499
1755 1 2.09 35.7066 5.75933
1217 1 -9.60998 8.47944 -8.44479
1042 1 15.9799 -4.57382 20.276
488 1 -8.52558 8.202 6.06728
1547 1 20.075 -20.0643 19.8576
613 1 4.84287 -5.24054 -9.42979
1240 1 6.76522 -6.99631 5.18813
188 1 6.90789 21.7324 20.5248
250 1 19.0308 6.42124 -8.39569
1796 1 -20.7817 8.39148 3.33236
1702 1 -20.0495 -6.58453 33.2757
1942 1 9.43662 21.8436 4.10209
51 1 -17.6667 21.1824 5.44287
7 1 -5.70381 22.0511 7.11913
1947 1 10.1318 -18.5331 4.8799
672 1 11.1813 22.2064 32.738
27 1 -3.0126 -6.83408 -8.78969
366 1 0.0930115 8.27507 5.45429
883 1 12.9998 -6.24858 19.0696
1969 1 13.31 20.9993 20.0285
184 1 0.335051 21.7961 6.74291
452 1 13.6092 11.1011 5.31541
1924 1 0.369444 9.22261 6.10577
1289 1 1.42975 -4.39962 19.3554
262 1 2.95007 -4.98822 -8.33411
594 1 3.76507 -4.06202 19.1992
2 1 3.33172 24.2424 5.55881
1639 1 31.0209 10.4013 18.0704
1669 1 -11.0504 9.72186 5.7631
1451 1 4.91269 -4.26895 3.84967
470 1 4.67996 -3.53882 4.72244
413 1 32.1907 9.21864 5.25432
851 1 19.6842 10.8432 -9.21455
648 1 20.8165 -4.75547 5.96139
1208 1 21.2615 8.77937 18.4805
734 1 -6.24735 -5.6216 -8.13254
783 1 -6.59056 -18.094 -9.89638
33 1 -6.76315 -2.86113 -8.53953
1992 1 21.7098 -3.16092 4.84621
419 1 10.8602 10.0616 4.76671
1281 1 -5.08364 -17.5291 5.3521
76 1 10.0064 24.3628 4.78606
1175 1 10.3057 -3.42693 -7.99186
304 1 -2.98389 10.7073 20.3393
317 1 12.0672 -17.0723 5.09202
222 1 -0.787311 8.75032 6.27941
1912 1 14.116 -4.57358 4.87429
1229 1 14.3087 -3.61722 5.69478
1675 1 15.5684 10.4644 5.51407
1972 1 28.4162 -2.45004 18.8892
1476 1 2.2547 12.5993 6.02794
580 1 2.90745 11.72 19.8383
1997 1 -11.6797 11.5076 19.4997
1762 1 3.614 11.3411 -10.0701
1182 1 31.094 12.8644 5.43351
1584 1 18.6068 10.2513 5.73502
1983 1 17.9226 11.0863 5.30844
944 1 5.64932 12.1852 5.94333
1842 1 7.43641 9.82505 19.0064
1504 1 20.8947 -3.35765 17.868
147 1 49.7314 11.131 5.44308
1965 1 9.62811 23.3323 18.8455
1861 1 9.86121 11.8701 18.7726
1800 1 11.4246 -16.9033 5.97546
747 1 -2.39737 12.3241 5.6879
1333 1 11.6562 -2.497 18.9761
675 1 12.9028 25.8578 -22.2242
1259 1 -0.465239 11.2187 17.2499
1975 1 12.6923 11.2705 -9.02616
1201 1 14.3944 12.5162 -7.33233
919 1 0.259396 -14.5215 5.20394
1506 1 1.02692 12.2409 35.1639
964 1 3.77821 12.1513 6.5808
701 1 15.2797 0.289451 6.99722
575 1 15.1946 -0.250805 5.70828
382 1 16.3348 -1.26771 20.6583
696 1 2.07172 -0.434012 4.39979
599 1 17.3097 27.3326 6.89543
1787 1 2.75978 13.241 -8.45388
1769 1 2.65321 27.1682 6.6831
638 1 32.5556 -0.303101 -7.98647
38 1 4.66662 12.3053 -8.15404
1741 1 6.11536 -3.14144 33.2399
590 1 5.48113 14.3349 -7.67158
1341 1 19.9757 13.9569 5.31121
1998 1 8.14027 -0.480661 19.3712
256 1 21.1273 26.3385 -7.44156
449 1 -4.66337 12.4916 5.22781
1670 1 -4.78824 14.2292 20.0541
560 1 10.2019 26.0267 17.2017
1364 1 9.24959 0.788591 -8.72033
1318 1 -2.77138 -26.1241 -8.28991
1904 1 -0.690131 13.0552 18.2934
1232 1 11.8896 25.7754 18.4274
1079 1 10.8213 -15.9268 -9.17736
877 1 14.0749 -1.77662 18.1172
1662 1 -2.94094 12.6146 4.45906
64 1 27.8241 12.7727 3.8799
1831 1 28.02 -0.0405057 20.2432
920 1 1.86576 13.8179 7.97735
1693 1 28.7189 14.5215 22.388
1909 1 13.4114 -12.5051 8.42514
1015 1 -11.0894 13.1817 7.64683
547 1 -9.07845 0.630826 7.56264
1809 1 5.65891 -13.2072 7.73397
1560 1 -7.51015 -0.950467 6.7336
1297 1 4.8113 13.2427 7.82003
1417 1 19.669 -12.4111 18.5678
45 1 22.8201 16.2364 -4.63253
424 1 -5.29988 0.797057 -6.3141
1383 1 5.26583 13.6906 34.2785
89 1 8.03251 -12.4707 5.92522
440 1 20.7962 1.14341 6.75893
1859 1 9.41963 14.6931 20.8222
352 1 23.0808 12.5779 -6.75673
1231 1 36.9678 2.23805 6.77438
1877 1 -3.46194 27.4949 19.7812
1973 1 11.4444 14.2352 19.6009
1570 1 -3.03146 14.7154 6.58608
1407 1 -0.28301 0.533441 33.8904
504 1 41.5706 15.0686 6.83102
806 1 -1.05425 14.4882 -7.74656
28 1 12.4343 2.38211 6.84905
1212 1 -2.01134 -12.1565 6.32779
1331 1 -13.2012 -10.1542 6.57819
426 1 1.54317 42.6403 6.96787
73 1 17.5322 30.4235 -5.60475
456 1 1.87832 -12.6099 7.82529
218 1 16.5483 16.6146 7.72674
830 1 17.5337 1.45937 6.54711
861 1 3.0787 2.06508 -20.4029
1437 1 18.2417 -11.5423 8.88637
214 1 19.8089 0.987839 -6.73873
459 1 18.6886 1.52549 20.48
1086 1 5.69485 15.8963 -6.44732
1243 1 6.25223 1.43497 7.96548
1791 1 34.0892 27.7463 7.83679
1176 1 21.4595 -10.4623 6.3436
280 1 9.79243 14.704 5.79384
387 1 -3.48494 2.35128 8.51363
286 1 8.56994 15.9467 -6.01681
768 1 -4.29751 16.5637 7.70555
1573 1 12.7519 -10.1627 -7.39935
1067 1 -2.89303 15.706 6.23452