ITEM: TIMESTEP
180000
ITEM: NUMBER OF ATOMS
2048
ITEM: BOX BOUNDS pp pp pp
0.0000000000000000e+00 1.3679807573413575e+01
0.0000000000000000e+00 1.3679807573413575e+01
0.0000000000000000e+00 1.3679807573413575e+01
ITEM: ATOMS id type xu yu zu
1096 1 13.5473 0.664752 -13.1496
881 1 2.36898 -0.016286 1.64895
1371 1 2.56988 -12.6354 -13.4773
1562 1 17.4788 -13.0181 25.7962
701 1 17.1627 0.739781 15.0973
795 1 4.14828 -12.3621 -0.111842
1359 1 -9.2403 13.3367 26.0992
284 1 19.2957 -24.8035 13.6484
1256 1 -9.52811 -0.0555803 1.00718
230 1 20.6851 14.6701 13.6815
1945 1 18.7853 1.02372 0.15311
1733 1 5.48981 26.9639 -0.205293
1824 1 23.3521 -0.715679 15.2075
235 1 -5.50702 14.8176 -13.7799
1367 1 10.2162 15.3974 14.1539
203 1 -16.0044 15.3465 14.6614
307 1 -3.94894 -0.228015 14.2418
317 1 10.5946 -12.9374 2.31343
793 1 10.611 0.548438 1.37382
1455 1 -3.01639 14.3455 0.145443
320 1 -1.17267 0.357762 -0.513019
420 1 -0.573957 26.5777 -11.9901
441 1 -0.383794 13.4917 -13.7128
1042 1 16.694 -11.7554 13.6011
134 1 1.83069 15.5923 -12.8525
1915 1 27.4525 1.83362 0.356223
310 1 1.08771 16.9658 -0.932269
693 1 -0.638268 -11.613 -12.5893
327 1 1.05779 1.07282 0.68678
1628 1 3.62477 3.60757 1.47303
706 1 3.39311 14.3498 -14.2728
562 1 17.5186 -11.1265 0.622174
214 1 18.2177 13.8438 -0.201943
1520 1 -8.81225 1.82149 26.7324
1014 1 5.47624 1.91629 -1.49721
1027 1 5.3442 3.31831 0.707519
1141 1 20.0039 15.4654 0.312493
1458 1 4.87098 17.8311 16.3151
1203 1 7.20662 1.55387 0.773836
1810 1 8.30958 2.11415 14.2157
955 1 -4.50915 2.50801 -13.4979
139 1 8.63781 15.3348 -14.5664
800 1 -2.40316 2.66396 -0.746938
1502 1 11.6262 29.039 13.5729
583 1 10.1787 2.65265 1.01145
644 1 -15.5469 3.15028 13.6184
1621 1 -3.73792 -11.1508 29.4628
343 1 26.3236 14.6621 15.0292
1459 1 -0.907978 1.27056 27.7288
1233 1 25.4426 -12.9229 -12.8601
446 1 13.9661 2.95569 -13.0178
396 1 14.8862 17.6891 -13.8565
704 1 18.034 4.01347 0.465245
453 1 -9.83544 18.5056 0.0713015
195 1 1.24723 4.1876 15.0395
1013 1 30.394 31.2831 0.625642
526 1 5.31996 4.77054 14.6479
1041 1 -11.5038 -36.8927 2.08837
1352 1 -9.23627 17.9399 1.55924
2003 1 18.1346 5.05255 15.8583
788 1 20.1896 3.04936 13.8801
969 1 -7.1706 17.3168 1.16667
1979 1 8.39067 2.79074 13.2272
1572 1 -5.94434 5.0463 13.3198
928 1 -5.35812 4.46594 14.1453
579 1 22.5514 3.60887 0.0455614
1000 1 7.12937 17.2895 13.1815
190 1 -4.67555 17.9388 15.0664
1837 1 -3.85748 -10.2116 27.7681
1026 1 -16.9709 3.87948 1.16475
871 1 -2.69261 16.1438 0.357275
124 1 11.4909 4.27927 -12.3127
682 1 -2.96018 4.0037 0.0503248
1596 1 12.7678 4.52297 -0.354644
1620 1 -1.58909 2.23434 0.502589
549 1 -14.8231 -10.4205 0.946551
1185 1 -12.3321 4.76932 0.472883
223 1 0.211595 19.574 -13.5479
733 1 13.2014 5.11033 -11.8176
248 1 15.5756 19.4274 1.2723
1198 1 3.48565 19.32 -0.706513
1090 1 -10.8633 -8.30337 15.9003
569 1 19.107 6.84395 1.68038
2046 1 19.1042 5.80816 14.9291
1701 1 3.19726 18.695 1.36281
1303 1 6.59994 18.6262 -14.0365
140 1 18.46 33.2769 0.241997
1054 1 18.9202 -7.63487 2.19922
1544 1 21.0377 5.47062 14.2748
548 1 -19.0662 5.6474 0.213216
1747 1 9.30973 18.8375 0.470196
10 1 11.1593 4.89423 -13.1993
1443 1 10.6382 31.2354 12.6078
1531 1 -3.27039 5.08106 -0.419909
1279 1 -1.24487 32.3167 14.6878
1043 1 -0.507575 -9.58477 1.39441
1439 1 13.3161 18.9167 28.102
425 1 13.8038 6.727 -12.6825
1884 1 13.8531 20.0163 15.5331
1851 1 0.455613 -6.2952 2.00975
1786 1 14.5586 21.1027 14.5025
1669 1 -10.7252 7.39726 1.76135
221 1 16.5519 19.2527 0.266142
1952 1 15.5606 6.94814 28.2659
1949 1 17.5075 8.05835 1.45942
207 1 16.3499 -7.10201 13.8857
710 1 3.86711 5.83776 1.7606
1871 1 6.29877 -6.35446 14.9201
714 1 -10.7661 6.17079 14.9538
403 1 4.61568 21.7446 15.8415
826 1 5.01166 7.83977 1.28829
1646 1 7.17245 -6.86631 1.4703
1231 1 33.034 6.68507 14.1976
108 1 5.37985 7.56198 13.8377
1712 1 -5.25382 5.14519 1.52349
1706 1 -19.4555 20.2214 14.4707
1918 1 9.80445 6.06955 1.37548
112 1 -2.77176 20.1716 14.9818
1863 1 25.659 5.25778 27.3735
1398 1 11.6335 7.39794 13.0351
1977 1 11.2031 7.86691 27.5358
79 1 12.6427 7.41064 13.9559
1586 1 -15.8419 6.79579 14.2249
212 1 -1.12032 -7.45022 -13.2261
1085 1 -1.4794 -6.62759 14.969
1365 1 12.6891 6.15736 1.51675
1366 1 13.2564 10.1381 1.91303
656 1 15.3425 23.1797 27.3829
1465 1 0.926257 -6.28997 13.3236
222 1 0.697919 8.2605 0.26522
1207 1 3.61912 -6.05004 29.8678
457 1 -9.38629 22.6819 2.45081
792 1 16.8543 -17.7902 15.2516
1805 1 31.6578 6.85738 1.87685
490 1 -7.81962 21.6639 -24.8398
439 1 -5.30236 6.68815 1.84847
1737 1 -20.3424 -5.7523 -10.6778
96 1 20.585 -5.54718 15.5076
1517 1 23.1423 7.18577 15.6948
433 1 -4.71092 21.4202 -0.141085
144 1 -17.3275 8.54566 1.15904
1176 1 22.7499 -5.03601 14.4524
1931 1 -17.5305 10.077 14.0655
1450 1 -0.470131 7.02614 2.09682
1045 1 12.0478 8.40165 0.707719
1870 1 -0.0359986 -18.2745 14.2699
1668 1 -13.6031 21.6338 13.0393
293 1 1.20131 10.0999 14.7482
525 1 0.712919 10.4305 0.260051
2033 1 12.957 22.0686 0.205095
1605 1 17.0136 22.3422 -12.9819
94 1 15.5353 22.8396 1.47227
17 1 -12.2554 -5.09221 13.2939
743 1 -24.0029 23.2932 0.458246
1208 1 19.479 9.88994 15.8232
2043 1 19.9973 8.34694 14.6087
35 1 4.23075 -31.8985 1.45124
334 1 7.1661 8.87995 1.0129
1603 1 -7.0221 23.8935 27.9209
305 1 20.0732 -2.76782 -11.9424
1388 1 -19.4997 7.70125 14.5608
328 1 8.14703 -5.26129 13.8707
760 1 8.81184 9.22453 13.6041
472 1 10.2844 7.5248 1.07087
1726 1 -2.53938 36.2766 26.0522
127 1 10.3632 10.8447 0.825285
1392 1 11.3107 11.6502 12.7206
1117 1 11.9445 9.31665 14.1538
419 1 11.5902 10.5649 -0.0132504
1162 1 13.448 10.3014 14.4091
142 1 10.7308 8.89318 13.3524
1315 1 -14.9079 9.2388 -0.943391
1350 1 -14.0339 12.4796 14.1032
1009 1 14.0622 10.5918 15.3662
1422 1 1.54512 11.5767 14.3014
1519 1 14.9144 11.117 28.8138
938 1 15.7185 10.5463 14.3342
891 1 27.7221 11.5945 15.7458
58 1 17.6285 -3.53225 1.07529
2025 1 3.00905 10.5892 0.708569
957 1 3.84113 -3.27198 13.6192
610 1 4.69669 -2.8548 0.286253
676 1 4.70846 12.8976 0.468435
884 1 19.5039 -4.06542 0.762426
1171 1 20.0261 0.228878 0.370733
1420 1 21.3941 -17.5524 14.6703
660 1 8.0377 -3.01913 -0.22985
338 1 7.71962 12.0369 14.736
179 1 8.73344 11.4783 -0.762358
217 1 8.7667 23.8424 0.351864
808 1 -4.17245 10.9731 13.5461
465 1 8.21144 24.3205 1.26604
1299 1 -4.36532 -2.9392 14.6598
1130 1 -2.57478 -0.810969 -1.11804
536 1 10.6169 24.9003 13.288
1840 1 -3.63776 -0.574624 -1.45335
1745 1 -1.1499 24.6731 14.396
1156 1 -13.3239 24.9768 -12.9247
1124 1 -1.36357 10.2749 28.8536
661 1 -2.05917 24.9267 1.61144
937 1 14.262 -0.571986 -0.549579
1419 1 15.6 12.8021 13.82
1421 1 1.94599 14.0338 0.609697
442 1 43.9842 -0.830829 2.06974
256 1 16.2733 25.0117 -1.31985
356 1 15.1298 12.1854 15.2914
849 1 16.2444 -15.9089 0.356682
477 1 30.2424 26.1043 13.7253
1108 1 18.4348 -15.1317 2.06224
819 1 -10.0573 0.570489 14.0726
209 1 5.22815 12.8383 -12.2526
889 1 -8.4825 13.7633 14.4293
1038 1 7.65019 -13.5082 -0.223056
1025 1 -6.15375 14.1545 0.764864
1901 1 4.38313 11.0904 28.5593
878 1 8.49585 11.4754 14.1924
1998 1 9.33457 -1.63441 13.4653
1897 1 8.00748 -14.2357 -13.1532
954 1 10.0926 13.5077 -11.4195
1516 1 10.9255 26.9683 0.815172
1889 1 11.7123 13.047 15.2306
496 1 11.434 12.3422 13.5815
1224 1 -2.03973 11.5405 0.580668
1763 1 -12.6075 0.000298675 13.9267
1809 1 12.255 -14.5819 0.650952
1955 1 -1.02232 0.144056 14.4269
860 1 13.9774 10.2448 2.80729
1259 1 1.50047 13.1815 14.8165
231 1 2.00333 28.6406 16.0046
1028 1 0.579939 -11.4153 1.35355
1113 1 0.582625 26.7524 15.6308
254 1 16.3068 13.465 -10.8398
1790 1 2.31066 0.992578 1.35691
827 1 3.20641 1.62795 14.5762
1242 1 15.9576 -1.24236 14.7625
1843 1 17.6256 1.65031 15.474
412 1 31.868 0.928602 -12.7234
1822 1 -7.321 1.61813 15.0483
1564 1 22.4476 13.7455 13.824
1017 1 6.10529 27.3975 -12.2718
1486 1 8.62232 2.97212 14.7238
153 1 9.42495 14.0709 -12.2516
431 1 -4.91544 -13.3201 2.30247
595 1 36.9098 15.0036 16.0074
1244 1 -2.82715 14.5296 3.3242
1449 1 -3.48129 15.3524 1.56306
1636 1 -15.9808 -1.67996 2.49397
1095 1 11.6313 14.0343 1.84802
597 1 10.9342 2.43957 1.84848
1476 1 -0.903606 13.8717 2.17958
1235 1 11.29 1.39628 1.96437
6 1 0.0127043 -0.268809 14.7044
1622 1 0.205387 14.9291 15.019
999 1 -10.6516 14.8147 2.23725
607 1 27.8424 3.99691 0.598014
92 1 11.9703 15.9092 -12.0079
995 1 -12.8363 2.70416 16.1724
1201 1 16.2473 15.7001 -12.1633
1209 1 2.82694 2.72812 0.545252
9 1 16.8023 16.7181 2.30828
1189 1 -8.97957 -11.5771 14.1995
744 1 3.52753 1.67765 17.8668
1913 1 5.73505 16.0172 14.7354
554 1 18.1961 -11.7007 2.60944
773 1 4.85797 1.91563 1.48236
1612 1 5.07837 2.89762 15.4766
593 1 6.15327 2.71706 1.93476
2018 1 7.8858 14.5697 15.942
602 1 6.28897 2.09394 2.89465
929 1 -4.81165 2.86759 1.98793
467 1 8.30139 1.28072 -12.4523
735 1 -5.85842 2.12847 15.2892
1670 1 -4.16086 16.9936 15.0893
1232 1 9.13157 29.4322 15.0311
74 1 -4.9446 17.5712 17.7675
1682 1 23.094 15.9077 30.302
121 1 11.2891 17.0761 2.11356
991 1 10.0001 15.9007 -9.7877
1110 1 26.2697 2.02474 29.9043
278 1 1.68696 -25.3161 3.02222
764 1 1.14136 32.7825 15.6186
815 1 1.34935 2.97374 1.52727
159 1 -0.186185 16.8335 15.1755
1689 1 29.8331 -10.3919 15.2304
1012 1 2.5797 4.32379 3.16632
1170 1 17.3991 3.83654 3.2237
1351 1 -23.3001 16.3159 15.2523
1964 1 3.62759 4.7598 17.7378
1844 1 16.3704 -8.43342 4.19353
523 1 17.914 16.8919 29.95
1456 1 4.8513 18.1178 17.4268
811 1 19.8475 -23.1506 2.935
475 1 5.72657 4.06782 15.6215
1609 1 6.65344 4.73183 15.7883
918 1 6.44267 18.663 0.759144
565 1 7.72364 18.2298 3.10041
1051 1 34.457 2.5252 2.23285
1772 1 -6.07187 3.25377 1.36166
1322 1 -6.03558 3.49204 16.3948
1438 1 21.5192 17.0601 0.284268
895 1 34.5058 4.36403 -13.3894
304 1 -3.48329 3.85354 15.8369
959 1 10.2223 30.0476 -0.321491
1407 1 0.606248 3.67283 29.3612
1823 1 12.3281 30.65 1.93052
655 1 11.3025 16.9181 -12.5669
1105 1 -1.3013 -9.19718 -11.5662
1293 1 13.2245 31.3094 2.60952
542 1 -12.7941 5.71924 0.924467
761 1 14.9664 4.55504 2.45127
1143 1 14.7111 19.4854 -10.7639
1023 1 14.0108 18.4471 -11.1124
1830 1 12.6764 -7.73565 17.2753
1255 1 -12.4343 6.37975 15.4625
386 1 -8.89985 -10.3166 17.1527
411 1 17.05 -9.37126 2.16646
1448 1 17.4843 -8.86748 3.0171
1186 1 6.22522 6.35108 2.81187
1869 1 5.78276 18.9079 16.8594
947 1 20.1002 6.12111 15.4151
1430 1 20.5336 3.72045 -11.4268
512 1 21.7578 17.8725 1.91378
1102 1 8.0795 5.59168 16.5259
205 1 -3.77854 5.52751 2.46524
1022 1 22.895 -9.16931 2.5151
1616 1 9.85669 4.83206 1.54073
319 1 25.2924 -8.6455 -11.1887
1148 1 -2.78982 19.0382 1.65753
385 1 -3.32161 33.981 15.8545
816 1 11.8752 17.5989 2.68928
1969 1 12.4512 19.2248 16.1397
87 1 0.366983 17.9399 17.1426
563 1 -0.280967 -5.60708 2.32635
1098 1 14.1925 7.4973 3.64566
612 1 -11.6062 6.29504 2.35985
1454 1 15.1419 20.6286 3.04265
1724 1 16.0654 21.3104 16.553
1941 1 3.1732 20.2253 4.55361
1513 1 3.10174 6.48967 29.7524
1055 1 3.82402 -5.57219 -10.1243
1607 1 18.0508 7.30282 31.6271
688 1 4.07947 6.20976 2.82225
617 1 6.52658 7.2452 -11.4066
1659 1 7.85847 7.49145 2.40742
1632 1 21.0512 -7.12202 2.48695
377 1 35.0438 5.722 1.89277
478 1 18.6034 20.8993 2.61214
1180 1 22.5266 7.73479 2.72795
727 1 7.32157 -8.93679 1.2575
1718 1 22.5778 -6.35113 17.3752
509 1 22.759 19.4878 -11.6194
582 1 -15.8864 7.03602 -11.442
1797 1 10.6711 -6.01807 2.09312
1122 1 9.86261 7.45192 18.0283
550 1 -2.74298 -4.92115 14.4827
458 1 -0.00447637 33.106 2.67958
521 1 14.7298 9.13208 0.773467
1872 1 -12.4517 7.85826 2.73223
1865 1 1.80087 7.7807 0.404482
1174 1 15.947 -5.06935 16.1807
1431 1 2.39344 8.28207 15.271
510 1 3.27101 8.64904 2.12771
253 1 -8.22916 8.73248 1.61959
994 1 7.51308 -6.54916 3.35096
1321 1 -8.79955 8.05696 16.9914
1939 1 6.39268 -6.51599 17.0184
1571 1 7.14331 -4.77906 17.534
1047 1 20.988 -4.385 15.888
7 1 -3.84198 21.9406 2.24339
115 1 8.44511 6.71472 16.5057
1795 1 -4.12328 8.33432 17.243
374 1 9.38015 9.64656 1.13989
1959 1 -5.41718 22.4065 2.46959
703 1 9.69588 -4.43259 2.11692
1249 1 11.7123 6.11947 15.3923
480 1 11.0858 5.93635 2.55132
720 1 -2.2703 7.61583 15.0745
1250 1 10.8731 -3.9276 27.7408
88 1 10.6677 9.23165 1.83028
1401 1 11.6179 -5.26743 15.7124
260 1 -0.85554 -5.72499 1.45139
1053 1 26.0939 -5.81438 2.5573
935 1 11.9908 7.31194 3.34567
322 1 1.80795 -6.42959 2.03963
1225 1 14.8753 8.5034 1.88473
1785 1 2.92029 10.1423 17.2773
1547 1 15.793 -17.6867 16.4023
329 1 1.86901 24.0989 3.50475
300 1 -9.70989 11.3522 -9.96254
1736 1 2.99614 23.8027 16.117
973 1 3.87592 -3.57162 16.7303
943 1 -7.52355 -5.42431 -9.55896
648 1 19.0799 -4.75959 2.68755
1202 1 18.7101 10.3962 17.6407
1534 1 -9.33991 10.2651 2.10084
988 1 -7.25729 9.37749 3.2131
1613 1 21.1696 24.1171 16.0749
976 1 -7.37399 9.00998 -11.5455
155 1 20.5029 9.99271 -12.0238
1922 1 -5.51306 8.56757 15.0918
227 1 -4.4967 9.62656 16.6726
1261 1 8.63752 9.03854 3.72052
22 1 -3.69146 -19.9218 16.5808
1615 1 -3.73985 -3.11839 16.4062
731 1 10.3202 -4.93809 3.00199
636 1 -2.21799 10.4546 14.6436
873 1 11.003 25.9422 -12.2297
865 1 -3.51615 10.1682 15.2403
1697 1 -2.08635 9.30952 1.41358
1618 1 -0.458228 9.16697 28.8562
402 1 24.7937 10.1716 15.8944
645 1 13.5519 -18.201 -10.9432
1543 1 -14.2688 -1.65079 2.40932
1346 1 1.14023 -29.8218 -10.6202
131 1 3.55718 -2.7151 -10.8534
416 1 2.20936 25.7497 2.36339
1008 1 15.8978 10.192 1.65722
941 1 3.18053 -1.9127 14.9071
1971 1 2.12379 10.8254 -11.2096
1723 1 5.38912 12.7947 17.0051
1858 1 5.05007 9.99441 2.97799
1744 1 -10.2096 10.8559 15.3916
371 1 -7.92394 11.3338 2.40835
1853 1 7.21387 13.1126 28.4032
1408 1 8.58135 11.4882 15.4959
1059 1 8.52181 9.57474 15.3908
162 1 -6.28096 11.4843 -11.7674
1080 1 -6.16831 -2.57408 27.9553
208 1 9.29653 -3.21607 1.92726
383 1 10.5216 12.2039 3.24303
2016 1 21.9241 12.3334 29.9327
64 1 23.9659 12.2711 0.46098
591 1 10.3692 -2.23163 2.63215
1738 1 -1.2615 -1.25494 17.0335
1369 1 -1.29996 10.2227 3.14141
1230 1 -1.48601 11.21 16.3514
1522 1 12.2838 39.3826 1.69217
1273 1 -0.612183 -2.55799 2.01289
855 1 1.13025 -1.28924 16.5549
605 1 3.94618 14.21 16.0155
1424 1 29.5854 -2.3361 1.59494
1179 1 1.43819 -1.75598 -9.80275
642 1 15.4369 0.613552 -10.5919
1058 1 -9.72801 12.5061 16.9967
952 1 18.5394 0.0179287 1.80749
1302 1 19.5303 12.788 2.43213
1331 1 -7.26669 -1.47994 1.59134
280 1 6.12265 14.6463 2.26362
330 1 18.9581 -3.10197 1.26505
511 1 5.22832 -1.88022 1.23868
609 1 7.04115 0.730489 -12.1195
1056 1 6.71556 -0.0660465 16.1284
558 1 8.53049 12.5317 15.0923
486 1 8.87407 12.5467 3.48999
1539 1 7.81437 -2.02729 3.31327
698 1 50.0897 26.7952 2.5405
883 1 10.9511 -0.669185 16.2361
1355 1 -3.98415 -1.85036 28.8163
966 1 10.221 12.3504 -11.462
778 1 0.514436 -15.1196 14.8049
1753 1 0.323137 14.5364 3.24603
747 1 1.34274 0.730192 1.70211
1673 1 0.77988 -0.315848 3.11393
1961 1 1.64071 -0.10054 16.0736
530 1 17.5188 -0.988319 16.0083
390 1 5.41605 1.39503 3.18005
1507 1 3.92779 14.6258 17.0939
1361 1 3.53648 -13.8235 3.69345
1284 1 -8.84976 0.33547 3.51814
25 1 -8.12745 -12.9378 -9.53477
1894 1 -8.17172 1.96017 15.9155
138 1 7.92687 -0.241858 -11.1787
67 1 8.15835 13.6344 15.1731
543 1 8.6051 -13.6525 17.1182
758 1 6.57748 0.460345 4.57105
1184 1 8.66471 1.37922 -10.5054
613 1 9.4838 0.503054 -9.7244
440 1 23.4694 1.40253 17.1389
177 1 -4.08022 1.98622 5.73793
285 1 24.7676 -12.8289 4.54694
1660 1 -2.07102 16.3104 2.8587
349 1 12.1752 0.94153 18.3931
573 1 24.6205 -11.6896 3.49009
519 1 -0.266926 1.31546 16.1464
683 1 14.1416 1.90746 2.98647
578 1 -1.90138 15.221 3.20208
1848 1 14.581 15.3119 2.14487
1400 1 2.61063 2.28778 16.4649
239 1 1.57282 16.4737 3.59789
188 1 2.29079 15.1135 17.1536
1290 1 -10.2764 1.77712 3.21598
551 1 2.02409 -10.551 2.68074
804 1 2.96831 0.668612 17.0329
1938 1 1.40695 15.7522 18.268
931 1 18.111 15.6807 5.02633
589 1 2.97931 16.2138 -9.52208
1003 1 4.38616 29.5012 17.4866
696 1 5.20792 2.79089 4.25415
568 1 18.9479 -11.2659 3.25796
1160 1 7.6321 1.72181 16.4093
111 1 7.74635 14.2839 -10.426
1197 1 8.02424 28.8388 4.05428
909 1 8.24822 16.2211 -10.6443
178 1 19.3197 3.20677 -10.9942
1253 1 22.3235 15.4258 2.21543
723 1 8.86497 2.2635 4.2838
1020 1 8.97852 1.24365 4.40577
434 1 8.69902 4.76375 17.0561
1567 1 35.959 3.59522 -10.6021
1883 1 10.9294 15.5564 18.4458
718 1 -3.20791 15.5476 16.2662
639 1 9.65674 3.19845 -7.88521
1193 1 25.6318 3.14112 17.778
1948 1 27.2235 15.9087 29.4363
1067 1 -2.78748 16.6253 4.5047
1570 1 0.584412 17.1742 5.18833
790 1 1.25887 4.78137 -10.1736
2048 1 13.8008 16.7077 16.8284
1320 1 -1.13283 3.21909 3.12805
1417 1 15.5018 -9.68382 17.5977
249 1 1.57345 17.4087 5.02387
1732 1 3.66486 30.1306 3.36424
101 1 2.64139 3.19566 -10.2405
1292 1 17.8839 4.49911 32.2252
1719 1 18.779 3.76156 -9.16788
1100 1 6.9676 3.88965 17.1742
1239 1 33.9612 3.12346 3.03495
524 1 -7.86624 -10.2813 3.70945
262 1 6.34072 1.59313 -9.79166
567 1 6.11144 4.74947 18.6617
601 1 7.8493 4.14913 4.49597
1691 1 -4.03034 4.14151 3.36296
585 1 8.15885 3.4811 32.81
890 1 -3.11899 -9.49558 4.38202
1429 1 9.57548 3.28315 2.64258
1597 1 10.5618 4.54553 2.78489
1907 1 24.2921 30.2716 -10.7742
1541 1 -2.392 3.7233 3.45822
624 1 -3.4481 3.37476 -9.81635
174 1 11.7415 17.9627 18.3547
1032 1 -0.908495 2.45507 4.06433
1690 1 1.17232 3.63747 3.13
766 1 -1.77956 16.1367 4.98698
528 1 13.8833 18.7599 5.28158
387 1 1.86194 4.78881 4.89275
1223 1 -0.232075 -6.78424 4.22236
555 1 14.1549 6.6761 16.7139
796 1 -12.7726 -23.0439 4.52372
53 1 28.6158 6.64931 17.7169
107 1 17.0073 5.74269 3.46283
321 1 15.7248 -7.91095 -9.98641
1379 1 2.18687 19.9202 4.65077
27 1 3.66011 -8.00526 -8.9804
1010 1 -10.7187 -6.32004 5.24711
859 1 19.2796 -8.66113 15.7467
432 1 18.2749 20.0432 3.82151
1300 1 5.95541 -9.25818 17.6613
1118 1 6.8453 5.00612 3.04297
90 1 7.8772 -10.2536 -9.91246
632 1 34.6713 6.56985 -9.33824
1629 1 10.6037 5.40917 17.1247
1296 1 8.43154 5.02346 18.1112
1832 1 -3.73139 6.05625 17.8973
668 1 9.55138 18.9814 3.5543
745 1 -4.09636 4.76142 18.0768
1341 1 24.6515 5.74564 4.70289
114 1 -1.37313 17.9429 -9.95006
1245 1 10.7883 6.0286 19.4679
730 1 27.0535 31.015 -9.80315
1624 1 -0.644706 -8.71056 17.0264
246 1 1.54856 7.82745 -23.5323
1920 1 16.0809 20.375 17.0498
340 1 2.28005 7.39917 4.23179
531 1 3.52563 7.77292 4.59992
198 1 -9.59964 21.452 5.54343
68 1 -9.60145 6.67947 5.621
1423 1 -10.1499 7.04784 3.64182
905 1 5.36874 7.06632 17.1512
1282 1 7.35781 -21.3563 -10.2557
522 1 8.19099 20.8935 18.29
1993 1 -5.37489 20.0038 3.70694
481 1 -6.57404 7.68227 -9.55486
13 1 -5.33374 8.06221 5.32425
921 1 9.61093 6.33122 3.0968
899 1 -4.1864 7.18914 32.5758
1966 1 23.6642 -7.40177 5.16692
1577 1 -1.94621 6.34746 17.0256
1532 1 24.348 6.63122 16.9693
1930 1 0.532012 6.33448 4.7994
84 1 13.1431 7.10303 3.17265
279 1 27.2985 -5.7498 18.1132
151 1 12.3444 6.58194 -11.1479
1491 1 13.7988 8.02645 32.7854
252 1 14.8338 8.42489 4.8902
942 1 14.3204 -4.62335 5.53965
38 1 3.17518 9.12226 -10.621
56 1 2.75519 21.9133 -10.1243
313 1 31.8424 22.7908 4.7166
1874 1 5.06448 -20.2613 19.2932
1841 1 17.9974 -4.64485 -10.1199
1383 1 4.7513 9.28235 33.3598
1545 1 6.29206 19.984 17.5655
445 1 5.16505 7.93375 -8.80678
1248 1 7.86978 21.9841 18.1172
944 1 6.24584 9.23394 4.39002
564 1 -5.6412 7.95864 3.44198
314 1 9.02668 8.23751 -22.9081
985 1 24.6331 -4.06578 4.47455
500 1 -4.99482 7.4574 -7.55652
2004 1 -18.479 -4.22137 31.918
1631 1 24.7776 8.05117 -10.6474
360 1 -17.4092 9.45939 -8.21622
1579 1 10.6299 8.09677 4.04177
1739 1 12.9557 -7.38977 4.96401
690 1 12.0572 8.42498 -10.2727
833 1 -0.253596 -5.54021 -10.2931
1481 1 0.677263 22.3144 3.66818
917 1 14.2664 -4.18857 1.6632
1243 1 1.19011 9.775 4.70658
599 1 11.5731 22.9903 2.71612
1275 1 0.95179 9.34156 16.3354
532 1 15.2641 -5.01656 3.21463
61 1 3.3157 8.86139 5.09904
11 1 3.75479 -3.57094 4.2885
1219 1 4.81711 -3.43028 5.24234
1680 1 -9.39655 11.0087 18.3274
1626 1 18.746 -15.8468 17.5489
924 1 4.63206 -2.48358 16.5587
1349 1 -8.42995 9.3713 17.5194
1704 1 6.60336 -3.95587 18.8921
1370 1 -7.95307 -3.40299 4.72505
1285 1 21.6582 12.3093 4.26022
331 1 8.6554 11.1917 -9.80053
1165 1 8.9166 -3.06649 -8.76457
1808 1 10.9789 -18.3999 19.3856
1044 1 -4.22233 10.5571 17.3157
259 1 -4.38902 39.3384 -11.2187
2035 1 -2.42718 9.04716 3.74556
1125 1 11.6542 -3.13339 18.4477
336 1 13.3316 23.8041 17.2866
43 1 14.4197 -3.4694 3.79893
1286 1 12.7975 -4.47195 17.0272
914 1 -1.16358 -18.2998 -11.3544
806 1 0.0788057 9.49008 -9.21424
963 1 -13.3984 10.6251 32.0964
1584 1 13.6679 11.2409 3.02294
1192 1 29.6725 10.7842 18.0551
483 1 1.18935 10.2064 2.21633
91 1 30.6887 -1.68177 4.27831
1725 1 16.949 -4.57457 4.01956
1814 1 4.59077 13.1821 16.4512
306 1 3.00448 -16.2175 17.3338
1260 1 4.37832 12.2859 18.2228
1131 1 4.48812 -2.63155 -7.95139
1492 1 33.1486 -30.3345 16.9617
1114 1 -6.27989 -3.95786 3.32338
397 1 6.85986 10.9886 17.0476
1755 1 8.42981 37.4902 3.91336
1035 1 6.18349 -2.00057 3.88765
627 1 7.06432 12.1003 3.79038
429 1 20.8023 -0.00334488 3.83684
940 1 -3.08055 -2.98958 17.5334
785 1 22.4648 -16.3792 2.8003
1112 1 -3.77201 -3.54044 4.63046
168 1 10.7575 -3.83331 3.1909
1414 1 -2.48839 11.5529 4.09752
673 1 11.2459 10.8558 2.96952
1188 1 -15.2759 -2.44464 17.4673
81 1 13.4703 -0.678254 2.79335
1771 1 13.4793 12.6055 -9.78185
1550 1 27.7523 -2.00615 4.07759
1835 1 -10.9757 -1.04157 3.65528
2034 1 15.4022 27.1703 4.83746
1639 1 29.4894 11.5607 16.9403
515 1 3.87806 -1.92741 15.7857
1138 1 4.5348 -0.584982 -9.67596
974 1 4.94989 14.6254 2.21078
1801 1 5.15698 13.5738 4.81625
1538 1 4.10873 13.7313 32.1752
83 1 6.43885 12.9194 3.31316
750 1 5.82472 13.4261 4.03805
1115 1 5.60957 -13.7091 16.5694
1839 1 6.69313 -15.5158 16.5793
867 1 7.68201 12.9456 17.1101
626 1 9.90133 0.394282 -10.5508
1277 1 7.38378 -1.05482 15.671
291 1 -5.46475 14.1568 4.34155
2008 1 10.644 0.0984028 4.02521
1663 1 23.5378 -0.701107 -10.5721
611 1 -3.49805 12.8502 4.20812
1804 1 9.92877 -0.163841 18.6474
158 1 -2.28318 -0.800641 3.52996
302 1 -1.99926 13.885 -9.79848
146 1 12.2516 12.9682 2.48854
264 1 11.572 13.9278 2.79972
828 1 -1.1624 13.4741 3.3557
722 1 25.9585 14.7908 15.9087
1446 1 -12.8023 -13.3168 4.1445
1452 1 13.8709 14.0413 2.0236
1405 1 14.6322 28.6905 -9.68153
742 1 0.11218 15.2833 -8.48105
12 1 2.4938 15.3491 4.46564
1537 1 15.671 -12.9473 4.26204
1167 1 -10.4696 1.94835 5.3162
242 1 6.3593 1.62384 -8.4538
394 1 4.55652 0.85056 4.4861
461 1 -11.0756 13.5784 17.9041
1066 1 18.7095 -14.0492 6.25407
604 1 20.8981 14.9279 18.5371
1854 1 34.1346 -25.1802 -7.46541
920 1 8.2185 14.9932 5.10798
932 1 -4.09245 15.0998 6.77996
1515 1 10.9914 14.1673 6.75555
779 1 9.16369 0.220449 -21.0167
117 1 -3.03872 1.10513 -21.5775
1116 1 -1.09551 1.41471 3.81726
907 1 11.9608 1.12343 6.63406
2026 1 -2.33012 0.347528 19.4546
799 1 -0.834614 0.468764 -9.45997
1444 1 -2.76704 12.8798 19.3415
1262 1 -0.930807 0.773096 16.8361
1524 1 13.5983 14.8489 -9.39356
45 1 13.7546 16.4251 -7.96981
192 1 12.7405 17.6342 -7.15987
2023 1 -12.3924 2.66093 -8.29398
961 1 2.79509 31.2992 4.30531
100 1 2.21881 2.89941 -8.82276
1842 1 3.92723 14.7935 19.0723
21 1 -7.38908 -10.3898 -8.82222
1489 1 19.6509 1.88705 6.84038
527 1 19.075 -11.8818 4.49088
1917 1 6.34645 2.58569 4.07589
1778 1 6.90681 28.4345 6.61563
238 1 8.00059 2.42336 18.851
1441 1 -4.74441 -12.528 -7.71837
1542 1 -3.68197 2.79445 4.81572
199 1 -3.41197 -11.2188 -7.28159
858 1 -2.87194 17.605 5.34734
1220 1 11.4562 26.9288 20.1829
1902 1 14.2546 2.74124 4.32889
459 1 13.3558 1.81078 19.8414
1675 1 13.1665 14.1662 5.31683
681 1 14.8104 -10.1517 6.09829
702 1 29.5831 29.3437 -8.18709
1873 1 0.949908 4.46884 19.2893
194 1 -11.4957 -10.5413 19.6148
749 1 4.49502 3.53546 5.3182
566 1 16.6455 -10.1588 -8.4216
772 1 3.90699 2.71033 18.3679
919 1 -8.89468 -11.3244 6.14062
700 1 16.7851 4.65762 4.94519
196 1 -9.9309 2.7695 -7.98339
1382 1 5.17458 2.73969 -8.45843
1770 1 7.23472 2.26393 3.593
1263 1 6.94195 16.0929 18.7096
1730 1 -4.66465 3.157 18.6354
274 1 -3.9533 4.53405 -21.5051
863 1 9.78597 17.5101 4.96417
1228 1 10.4373 4.98814 5.04251
866 1 -2.73458 2.73309 5.48571
1891 1 -1.08409 3.84929 4.85297
1893 1 -0.295521 3.02355 18.4156
372 1 -1.0141 3.17103 -7.97004
295 1 -15.5926 17.174 5.55517
992 1 13.3381 4.16038 19.1571
1384 1 2.85392 -7.95805 19.133
1757 1 1.78754 5.0362 -7.45051
298 1 15.8465 4.26588 -6.78951
1236 1 2.89561 18.294 6.31865
71 1 -8.42578 19.0019 -9.13016
1074 1 5.59646 5.37362 -7.79809
312 1 7.3598 4.95339 17.777
1942 1 8.07828 19.703 4.93685
1142 1 -6.65915 -7.56629 5.43121
341 1 -7.5734 4.52609 -21.1908
148 1 7.42148 18.3616 18.9513
691 1 7.37007 3.16553 4.54353
1943 1 -4.52828 19.245 19.1741
637 1 -4.82225 4.27906 5.09364
707 1 11.6044 5.08488 -10.0012
666 1 -3.41592 18.8474 6.61368
1168 1 -1.67129 5.86201 -9.14902
927 1 1.11234 5.52586 18.3892
118 1 27.205 -8.89331 6.36344
1665 1 14.1781 5.72496 3.85151
1363 1 -15.913 -8.50702 5.63592
587 1 0.972058 -7.0338 20.2031
1150 1 2.00777 18.8502 -11.0019
1344 1 27.0147 -6.78236 7.26785
1463 1 15.3741 19.6754 6.81561
145 1 0.757129 21.0086 18.237
561 1 1.83916 5.99117 5.6807
1301 1 3.02847 -7.03725 6.06542
2019 1 -10.0675 19.078 19.8872
476 1 -8.24336 6.68886 -6.39007
1437 1 18.4679 -7.39524 4.9805
405 1 5.93084 19.8086 -8.65065
1686 1 20.1053 7.13643 5.08405
1587 1 5.90883 -5.99925 19.7307
635 1 34.4317 8.00398 5.82593
1798 1 5.9537 -7.10522 19.9243
822 1 -20.8414 19.167 4.44041
789 1 7.23943 -18.1899 5.87549
487 1 -6.74252 6.99966 -7.57671
1896 1 8.01825 -7.22982 20.1946
797 1 9.02117 6.35993 -22.7385
576 1 9.27003 5.82123 -7.1625
801 1 -3.51697 6.23402 -7.10501
1638 1 8.8168 20.215 19.5514
847 1 -14.982 -6.88096 4.2891
1666 1 -0.968379 32.3256 18.1553
77 1 10.8645 -6.92525 4.61476
398 1 -2.21013 20.4012 -7.29152
986 1 10.735 8.05391 20.2627
1268 1 11.6848 7.59864 -7.70333
160 1 15.6942 6.92653 6.25676
949 1 0.414113 7.71368 6.40135
183 1 13.6497 -4.663 6.64124
166 1 -12.2673 -5.55722 19.7617
233 1 1.88263 9.09407 -9.578
1722 1 29.2476 9.40218 5.54719
803 1 1.73511 -6.1145 5.11894
1327 1 -11.3385 8.37501 4.86831
533 1 2.4238 8.06616 -7.82762
571 1 3.89402 7.3455 -6.97908
880 1 3.80591 8.80998 -7.70595
1802 1 5.37161 9.38264 18.719
810 1 -8.18891 -6.66701 4.52191
1934 1 -8.67547 -5.43018 -7.85133
1099 1 6.97839 -18.8229 4.93086
1494 1 7.69345 9.40511 18.1825
171 1 -3.30949 22.3757 18.5554
1838 1 8.94844 8.53619 -7.62935
1064 1 8.59875 9.38702 5.54242
413 1 23.7334 9.35812 3.86015
76 1 9.63318 21.8292 5.33043
86 1 37.8764 -6.42945 5.50765
335 1 10.7927 -3.69665 5.4496
267 1 -2.2597 -6.02517 4.70423
926 1 12.7558 21.2244 -8.61952
1386 1 -1.08286 -6.60751 19.9725
2042 1 11.7401 22.3232 18.1288
1788 1 12.6036 21.5227 4.00257
1713 1 14.6102 -3.64726 -21.6151
1829 1 1.87502 -3.19912 -8.45916
1972 1 28.6064 -2.85492 18.1081
60 1 16.3919 9.86083 4.78419
384 1 3.64949 10.0276 5.38715
1957 1 2.79436 -3.24963 5.95268
694 1 3.15267 10.9917 4.89274
1081 1 19.2694 25.0099 -8.72193
113 1 6.77954 10.4011 4.27566
408 1 21.4538 -3.64566 -8.10319
1134 1 8.88143 -15.2412 4.69455
675 1 8.00588 24.6402 -22.7235
154 1 8.85388 11.5862 -7.10414
1674 1 -3.06253 -2.62673 4.89627
382 1 9.57421 -3.26419 19.5062
218 1 8.81637 23.2193 6.62526
1821 1 -1.42008 -4.02204 31.3388
1962 1 12.6264 8.21098 5.95683
809 1 -14.6131 -4.94125 4.40105
1397 1 13.172 9.0154 19.1972
1381 1 -14.429 -3.37453 18.2183
1328 1 0.997387 11.1836 5.4621
1461 1 -0.266304 -2.01775 18.5114
1335 1 3.21999 11.4556 7.65816
1649 1 13.8077 12.1185 33.2018
901 1 13.6658 10.0775 6.51077
1345 1 1.95577 -15.7308 18.6053
667 1 3.15511 12.0614 2.89298
164 1 2.59564 -2.75885 6.88584
692 1 5.53886 -1.24977 4.72173
104 1 6.66165 -2.79801 18.9517
2021 1 -18.8933 13.1762 18.9021
363 1 7.22665 11.8059 4.76565
1036 1 -4.60609 13.2603 4.34981
1886 1 8.48091 25.5625 19.3087
1855 1 21.3694 13.1294 5.95518
1604 1 9.5374 25.1858 19.2006
1376 1 -3.98644 -2.37085 4.39529
1688 1 13.3535 13.2825 18.4121
73 1 12.3244 25.9135 -9.31245
1356 1 11.0633 -1.08659 4.61307
1278 1 -0.620977 24.8668 3.93567
699 1 -0.0839721 -2.59885 5.67314
1862 1 14.2812 27.4649 18.7567
1906 1 0.955478 -0.783133 -9.63425
1216 1 1.04405 -1.25717 5.28252
1573 1 13.7253 0.0719592 -9.90352
392 1 2.38483 12.5779 4.77852
1251 1 1.97337 12.3443 19.4183
1477 1 17.5767 11.9229 18.9384
1332 1 17.0537 -0.654913 18.2874
1608 1 -10.0233 -16.2667 20.1674
389 1 16.8924 -12.9793 4.42471
2039 1 5.72066 11.4647 34.59
379 1 -7.53141 14.2883 5.48337
1334 1 6.63017 0.710209 16.9082
1311 1 6.59663 -14.6896 31.9074
324 1 -6.36386 -0.301465 -8.83582
581 1 -5.94444 1.63269 19.7208
1958 1 -3.74217 15.1823 4.71717
1847 1 9.56103 11.5242 17.0445
1540 1 -3.85506 0.783017 19.1658
172 1 -3.45978 13.5218 6.04821
2007 1 -3.42552 12.2504 18.9319
373 1 11.1648 13.5958 4.921
1271 1 12.7172 15.5246 18.7513
740 1 0.68505 13.1173 19.8074
184 1 -0.669927 14.5619 6.38098
316 1 12.5807 -1.73327 -21.916
213 1 1.87452 14.7945 -6.38774
874 1 27.9876 1.29977 -6.88881
1076 1 -10.6653 0.00784053 5.29933
1364 1 14.8036 1.08706 -8.66925
711 1 0.641141 15.6881 6.17319
428 1 2.95577 28.56 8.32067
1104 1 17.1576 0.553226 -7.48869
69 1 3.04961 1.22318 -6.41449
1378 1 18.4943 0.52432 19.2497
1588 1 -9.73843 -12.7564 -5.84459
540 1 5.70148 0.896107 6.4218
1720 1 21.1993 16.5902 6.14358
560 1 8.13792 27.7732 19.2478
1590 1 8.99236 0.76632 7.24809
1158 1 22.1065 2.03405 6.64889
240 1 11.2468 13.4938 21.2455
1973 1 9.91807 13.939 20.8846
1163 1 -3.24288 14.5205 -5.83021
1073 1 12.2701 13.3797 -7.96362
380 1 11.8433 -14.0148 8.36266
1876 1 14.101 14.4947 5.88671
1850 1 0.0273574 -14.5293 35.0248
120 1 12.8137 1.70335 -6.58387
1317 1 15.2619 2.54175 6.42526
1799 1 -0.24632 -13.1308 7.61305
348 1 1.13492 15.7064 7.4254
55 1 29.721 14.6849 -8.43617
1126 1 1.41194 16.4948 21.6804
737 1 -11.4637 15.6742 34.3965
1062 1 2.38929 0.213388 7.00462
1625 1 2.56375 1.13447 6.26879
28 1 3.17304 2.39575 7.50245
415 1 32.6431 15.1414 5.63075
662 1 4.33471 14.7975 20.0575
1440 1 6.4701 2.5733 7.33912
123 1 6.37802 -10.1155 7.72201
861 1 5.65973 5.07342 -19.1729
781 1 20.1193 -10.3304 6.32886
1339 1 21.8796 -12.1192 7.67401
1678 1 -4.8126 2.76633 8.30469
875 1 7.98158 2.9851 21.168
1606 1 -4.54448 15.475 21.4318
479 1 10.0736 2.48311 -6.0825
615 1 10.6328 1.73401 7.12073
717 1 11.3548 15.6739 20.1641