ITEM: TIMESTEP
95000
ITEM: NUMBER OF ATOMS
2048
ITEM: BOX BOUNDS pp pp pp
0.0000000000000000e+00 1.3679807573413575e+01
0.0000000000000000e+00 1.3679807573413575e+01
0.0000000000000000e+00 1.3679807573413575e+01
ITEM: ATOMS id type xu yu zu
1349 1 -13.3956 0.630012 15.5859
479 1 0.572302 13.5525 0.548063
1114 1 0.867134 -2.02472 2.75103
536 1 1.86361 13.2718 2.35291
1120 1 17.2951 -0.270122 14.1125
1503 1 30.244 15.0396 14.0051
1405 1 17.0175 14.0976 1.11143
988 1 2.66632 13.8486 2.06209
1412 1 1.97615 14.0719 14.5958
470 1 6.30823 0.617636 0.246658
487 1 -9.40684 14.6354 0.559549
1721 1 31.7172 13.9419 13.4859
1179 1 6.9017 0.520567 -11.9954
237 1 7.23423 1.97865 -13.3816
1621 1 -5.04463 -13.296 14.6302
221 1 9.01521 13.3032 1.66626
475 1 7.73863 1.21332 14.5478
1054 1 9.23757 -13.5349 12.9358
1251 1 -4.45322 14.6333 15.4198
31 1 8.99589 1.55144 -0.501762
4 1 -17.3454 14.3774 0.572454
865 1 -3.02095 13.6712 14.7866
125 1 10.9957 1.0453 -13.0849
359 1 12.1958 1.85259 0.61285
714 1 -1.37828 14.4928 13.8202
436 1 -1.35642 12.8825 2.49272
1063 1 14.5603 2.28361 1.92305
1535 1 14.3187 15.3399 27.7963
520 1 1.32317 -12.2806 1.51094
1287 1 2.0521 2.28796 2.03566
36 1 2.48473 3.26318 2.31439
1029 1 5.27774 -8.871 13.9525
1504 1 17.9435 1.4884 2.18217
99 1 6.21235 1.60962 -13.4259
926 1 18.2799 15.9228 1.41443
182 1 19.4242 1.80154 -14.4959
245 1 6.90619 16.1275 -0.564739
1769 1 6.76005 28.9472 14.8993
1044 1 8.01628 3.26614 14.2895
754 1 22.1475 16.4608 -11.9054
531 1 6.76106 3.4783 1.49409
1155 1 7.54752 2.52709 1.39857
93 1 22.3119 16.1371 0.65415
1841 1 8.64154 1.81471 1.64338
614 1 9.22859 3.43004 14.8172
379 1 -2.43556 15.7509 -0.0201675
48 1 10.2305 1.79395 2.21311
1370 1 -3.42774 -12.4629 13.3377
834 1 -2.11361 1.71202 15.1422
931 1 -0.0754334 16.0914 -0.407894
482 1 -0.0481816 16.4405 1.8567
1880 1 -0.0876224 3.01053 0.523095
710 1 2.06438 18.4004 -1.65968
1116 1 1.36814 4.54004 -0.589822
1039 1 13.1452 6.24814 16.088
1346 1 3.00962 -11.3348 0.602521
87 1 2.42189 15.1276 15.0211
77 1 0.0148495 4.65806 0.995323
209 1 15.2588 17.8026 -13.1118
805 1 14.3346 3.64637 0.841703
364 1 3.72632 2.25072 2.88755
1327 1 4.18793 2.92993 0.763315
248 1 16.7313 15.994 1.95033
810 1 4.48093 4.69529 1.53747
799 1 4.40578 4.26173 0.241004
1127 1 -8.81577 3.68448 1.86712
596 1 -7.38839 18.0275 1.97716
985 1 20.0213 4.34124 13.1022
1970 1 -20.284 3.35381 13.8272
401 1 9.28004 15.9044 2.69493
1338 1 8.51213 3.95275 1.58695
350 1 24.4288 -10.6268 0.373672
562 1 9.65412 -9.9243 0.19717
966 1 -1.1482 16.1536 1.5833
376 1 10.7955 2.43698 12.8487
1252 1 -1.94488 16.3192 14.3668
102 1 -2.65344 17.2346 -12.3331
741 1 1.18917 17.2018 13.3664
1531 1 13.0588 4.00066 0.286662
39 1 2.40154 5.41413 -0.55859
1583 1 1.5483 18.967 13.9508
1623 1 14.2653 -9.86867 12.2889
759 1 2.80017 5.14575 14.004
1323 1 3.71023 5.90807 0.0827497
1646 1 1.72387 -9.80398 -12.1715
1237 1 4.62462 19.5917 0.848873
1055 1 17.8615 -7.79598 2.45967
763 1 17.9227 4.95485 -0.561714
748 1 -9.81169 17.5064 -0.741075
1051 1 32.5622 4.10329 13.1038
1562 1 19.7612 -8.59967 14.5649
1265 1 6.27893 17.6146 14.0682
194 1 -5.59214 5.03999 16.0263
910 1 6.69788 5.9719 -14.4335
1103 1 21.0106 4.33685 0.284323
1362 1 8.54245 4.41254 0.675885
820 1 7.86459 5.15707 14.3007
143 1 9.23268 -9.99913 -0.757345
1971 1 9.3697 5.92548 -0.396333
1691 1 -4.10458 4.82771 0.377567
338 1 9.95085 5.47716 -1.21901
1573 1 -1.35966 4.19838 -0.628919
1609 1 -2.21632 3.96074 14.06
1855 1 15.3034 6.42842 13.2566
2011 1 14.2982 18.3829 13.882
234 1 12.4421 6.11782 -0.634403
1615 1 -0.40665 5.12784 13.5152
901 1 16.4832 20.6725 -12.498
627 1 0.0160466 6.27368 17.0058
1735 1 2.46672 6.09777 13.8719
57 1 -0.190163 7.38362 0.223197
717 1 17.023 21.5741 14.4576
1782 1 1.81312 21.2228 15.1984
1844 1 3.16212 -6.79864 13.9505
14 1 3.75631 -6.31978 1.49896
152 1 5.50465 5.88687 0.470595
1222 1 5.77515 6.02122 15.725
1617 1 4.82084 -6.42567 13.2434
1292 1 6.12062 6.89874 27.7327
285 1 21.9125 6.60957 0.161404
1047 1 6.64342 7.04629 12.5165
1921 1 -5.1554 7.51787 14.3599
362 1 8.90701 -6.99319 -0.958039
1289 1 -4.46593 -7.90171 0.716395
353 1 8.68399 7.76385 -0.324836
1699 1 -2.4336 20.986 1.2293
2021 1 -3.5753 7.34489 14.0484
618 1 10.3578 6.4836 13.4681
760 1 12.0518 6.4589 1.26415
1567 1 27.9026 5.67192 -0.330728
1415 1 1.15176 8.033 13.4767
1978 1 15.017 -5.43038 0.876289
1457 1 1.57486 22.9398 13.9581
16 1 1.49257 7.09241 12.2751
1980 1 15.9837 7.58408 14.2425
1341 1 18.244 8.4645 1.49072
1713 1 17.5896 -4.33817 -12.7265
1438 1 18.1043 20.505 0.360447
348 1 2.55101 9.62026 -0.272895
1367 1 6.28899 8.75406 14.1867
1807 1 4.93899 -4.79535 14.2674
2017 1 -6.39077 20.9653 15.6203
927 1 7.36044 6.93049 14.6504
1594 1 20.165 9.24536 15.3967
1724 1 20.4391 21.215 13.4721
26 1 21.8064 -5.20642 1.08023
1306 1 9.0497 8.71084 13.7238
1958 1 -4.7446 9.65857 13.9653
1245 1 10.3729 -5.71971 14.9527
116 1 10.0465 21.9009 -0.102714
771 1 11.7946 7.55547 14.0374
1339 1 12.3336 -5.21352 13.9646
1204 1 24.5379 -5.34788 14.1196
1969 1 12.9931 7.91975 14.7377
849 1 12.2198 -5.99197 1.67273
1057 1 -0.177621 -7.55585 14.0095
1004 1 0.337176 21.9524 14.2889
259 1 -12.9303 11.2398 -13.335
449 1 0.400672 9.36573 14.6835
88 1 14.5623 -3.52227 0.387087
11 1 2.61547 -4.27339 0.782872
933 1 2.63537 10.4788 0.848811
1938 1 1.92076 10.46 13.7718
1440 1 18.4864 10.7764 2.21525
1154 1 3.47403 10.1443 14.0556
1458 1 4.83789 11.0745 14.5271
46 1 6.3307 -3.68749 0.960028
137 1 6.36143 10.4838 12.876
96 1 20.8845 10.9064 2.50924
24 1 7.20944 -3.45013 1.4953
740 1 -6.89927 9.77445 13.4717
1887 1 21.6844 9.97879 14.4836
676 1 -4.24906 23.8584 15.2098
1823 1 7.91155 23.9644 13.5124
1753 1 8.47864 10.7479 1.66355
1263 1 9.8921 10.1849 0.476355
1203 1 8.78824 10.0931 2.60448
1165 1 9.61479 9.34286 -0.494469
1596 1 11.9832 9.54461 14.6096
578 1 10.4287 10.5032 1.49437
1907 1 12.4592 22.9852 -0.393547
685 1 -0.61275 8.97726 0.788925
113 1 11.9823 10.5636 14.7333
828 1 12.3894 8.77753 1.51953
802 1 -0.455846 23.3708 15.2067
1070 1 1.5182 -3.20379 15.0834
1128 1 14.2298 -1.23135 14.5139
906 1 -12.2573 25.962 0.0116633
1284 1 1.85546 -2.19153 2.05257
1829 1 3.83393 -3.2142 1.63044
92 1 16.6458 11.3947 -12.2217
435 1 2.15612 12.0444 1.17713
214 1 17.9366 11.6286 1.93274
524 1 3.23278 -1.46152 0.298176
1205 1 5.67036 10.358 15.5251
1221 1 4.59863 12.0966 0.971658
663 1 6.05582 -2.72052 28.3696
1752 1 6.08569 -1.61362 13.2049
1300 1 6.45744 -1.51611 2.86391
872 1 8.20364 -16.2088 2.69419
877 1 9.41235 12.0266 0.319061
822 1 -5.92801 11.4296 1.8493
1831 1 24.1342 -1.57151 13.8339
1296 1 9.98611 -1.1975 28.5102
1351 1 -4.1364 11.4638 15.0547
7 1 10.4174 11.2749 0.908454
1033 1 10.9848 12.5407 1.00168
1018 1 10.9938 10.281 14.2807
1317 1 -0.0501067 -2.11081 14.6728
172 1 13.3915 12.5274 0.139124
1570 1 -1.06998 11.5019 13.9521
299 1 12.6276 11.2737 -12.1304
1198 1 1.31104 26.1518 1.95778
54 1 13.9227 12.2145 -11.74
699 1 15.1387 -0.437753 1.07099
1167 1 -11.102 -1.15199 2.05297
439 1 3.70458 12.385 1.31151
1988 1 4.4447 13.247 14.6802
593 1 5.48469 -0.911565 0.761616
597 1 20.0435 -1.52817 0.707267
510 1 7.64958 13.4617 1.62252
1541 1 7.02361 -2.11083 1.10625
924 1 8.09921 -1.39347 2.78339
1080 1 7.15243 -0.563818 16.1791
1704 1 9.38959 -0.5444 16.2778
729 1 7.55405 12.4696 15.3446
1369 1 -2.24103 13.3915 1.68559
455 1 -2.9673 12.0086 -1.05963
204 1 -3.93731 13.3708 0.251259
1711 1 11.7594 14.2764 14.8289
1256 1 -15.5423 12.2671 13.7986
1868 1 -1.23274 0.180347 -2.11473
871 1 -0.319327 13.132 1.04324
696 1 11.8677 -0.568232 0.798388
785 1 15.2573 -13.3909 3.16422
620 1 15.0346 0.247532 18.297
984 1 -12.2821 14.101 1.98084
1626 1 15.3251 -14.7198 16.823
1336 1 2.45193 -0.0820603 3.86392
673 1 14.4132 15.4481 3.72565
1299 1 1.8089 1.26909 17.3322
1852 1 5.94283 0.553338 14.8636
1185 1 -9.42773 0.535475 1.58907
284 1 19.0116 -13.6595 0.311953
2007 1 -5.98245 0.81569 16.3696
1586 1 -6.85348 1.48411 16.6831
640 1 21.7791 -12.7981 15.4973
105 1 7.33396 1.21419 4.01216
1087 1 10.4707 14.7577 15.1974
1783 1 22.3363 1.11243 16.5526
458 1 -4.37239 14.0042 3.19903
1435 1 -3.31936 15.657 3.59776
646 1 -3.27031 2.01876 14.3314
851 1 11.4909 13.7752 2.78388
1662 1 11.3094 0.847626 2.03087
1026 1 -12.9898 0.332519 3.77167
1634 1 -0.720516 14.2161 15.9084
845 1 12.4761 13.4578 3.34335
1459 1 0.0239598 -10.0984 16.4131
2026 1 0.90778 1.05914 16.5019
1700 1 0.141687 1.64441 29.4805
650 1 1.21488 15.5363 4.66744
1515 1 2.62132 15.5825 3.00664
772 1 1.31942 2.81807 14.8082
1295 1 15.0367 2.25478 16.6474
1348 1 2.91793 1.29037 2.24927
1836 1 15.5385 1.34172 2.55365
691 1 3.50769 1.44807 3.53795
2045 1 19.0425 14.9606 1.74392
580 1 3.90028 16.7845 2.1243
1809 1 5.42815 -11.299 2.22645
1965 1 6.54032 16.2028 14.4657
876 1 6.25899 28.6081 2.25646
854 1 7.41549 1.75276 2.00998
979 1 20.2155 16.0539 15.4999
1009 1 8.95315 17.5248 17.2912
806 1 -2.57149 2.72574 3.57287
970 1 10.856 2.4833 1.41033
1568 1 9.96039 2.9277 15.6699
302 1 -0.933133 1.36075 1.51066
1886 1 12.3196 14.7985 17.1172
896 1 -0.387405 2.07911 14.4593
195 1 -13.7904 1.05399 3.10832
1375 1 11.9013 -11.5957 3.40668
447 1 26.2811 3.1341 2.46284
1933 1 -0.397267 3.73407 15.1261
1534 1 0.880766 17.0933 1.81933
955 1 2.0671 4.15889 -10.6386
734 1 2.73624 4.40476 1.76536
1012 1 3.55214 17.2138 1.21758
2038 1 5.61741 15.6649 14.7047
1319 1 5.7959 -10.676 1.45087
1030 1 6.05911 3.31699 2.52545
1028 1 -6.32185 3.70878 15.9975
1302 1 20.1629 5.29899 2.36934
573 1 23.4091 -9.76337 15.875
187 1 8.59899 3.55697 2.59152
1357 1 10.8172 16.795 2.59047
1818 1 10.0779 3.9333 14.9377
246 1 -1.9394 16.2676 -11.3835
1627 1 10.6908 -9.78617 3.54619
1793 1 12.3181 3.47613 14.6695
1071 1 26.2274 4.57141 15.3071
1967 1 11.9665 17.3696 1.99927
1744 1 -1.90209 3.4962 16.7884
756 1 1.84964 20.3715 0.725508
666 1 0.25459 5.2681 -10.7441
219 1 13.5422 19.1199 1.93975
382 1 15.9528 5.0134 1.13869
773 1 14.1226 6.58968 1.54579
1158 1 28.6968 4.83058 1.66529
150 1 2.1669 5.54428 -11.3785
1842 1 3.50294 6.03935 14.825
1607 1 3.07302 5.45397 29.2056
492 1 5.31034 32.594 1.42573
839 1 3.07095 4.83712 2.68777
198 1 -9.49499 18.9648 3.45935
697 1 19.1911 4.69105 2.4689
425 1 8.16485 6.20025 -11.394
813 1 -6.06603 5.38105 3.19305
111 1 7.92906 6.10953 -12.4123
1630 1 23.6387 4.93418 2.35763
1641 1 10.3565 4.96264 15.0047
1368 1 25.2916 6.48978 13.8171
1064 1 10.7675 4.2242 2.41633
1456 1 10.0197 7.05066 16.8506
1543 1 -2.3439 -8.49541 0.629492
917 1 11.274 -8.76351 1.68813
62 1 11.6612 5.99634 2.81658
1957 1 -1.30054 5.09693 0.789299
1590 1 -0.900972 -8.19373 3.0532
678 1 16.4346 7.56238 15.673
1777 1 14.5438 19.9085 14.1639
205 1 -11.6481 22.1678 3.26454
1639 1 15.6489 6.63918 15.6055
139 1 16.0521 19.6845 -12.4202
1042 1 5.14211 -6.98218 1.36992
1910 1 18.6762 6.81997 16.1438
1554 1 21.2256 -9.39427 15.1067
1180 1 19.8814 7.15314 15.6449
1845 1 5.01776 7.81677 15.8199
27 1 7.00865 -8.46692 -12.2457
1136 1 6.772 6.21457 1.88026
378 1 20.6403 7.90073 1.11472
1283 1 6.54759 -7.49574 0.892886
291 1 -4.90789 6.70227 1.23169
1109 1 9.82341 -7.87894 1.62566
701 1 21.967 7.16874 16.0673
1398 1 8.73182 5.4052 15.2767
454 1 -5.70559 20.2649 3.27692
918 1 9.25045 20.7848 2.15796
571 1 10.3495 5.73219 0.517615
1002 1 12.3578 19.285 15.5834
1522 1 11.096 20.3498 2.35122
258 1 10.963 5.87826 -12.2306
1000 1 -0.657691 19.7047 14.925
1211 1 25.8964 6.66345 15.8936
1624 1 13.1543 -6.5787 15.3729
1365 1 14.733 7.16601 2.16343
852 1 -12.7056 7.25438 0.840266
498 1 13.5289 22.2582 1.61298
438 1 16.0043 8.54217 1.30916
1665 1 2.21072 9.3847 2.6548
1340 1 3.51296 8.68059 29.1488
426 1 2.73356 20.5783 2.92743
532 1 17.796 7.88171 2.5404
1996 1 5.95426 21.6262 15.0236
1689 1 19.2262 7.84943 14.0069
1508 1 6.00533 7.54148 2.85477
999 1 5.64972 8.86719 2.65121
848 1 6.56902 8.29827 15.8775
2047 1 8.87843 21.7878 15.6213
776 1 9.48963 8.15657 14.59
728 1 8.60734 23.2191 1.42908
770 1 -4.15624 -4.52686 14.8762
1629 1 10.2922 -4.45028 13.955
1506 1 -2.06268 21.9504 28.4532
595 1 25.5499 9.39655 15.9541
1911 1 23.9838 6.67424 15.129
451 1 0.12648 -6.68189 2.44738
386 1 -14.4651 -5.48466 2.41497
321 1 -0.763461 -4.39969 2.57896
63 1 28.5751 -4.07846 2.13381
481 1 -11.9916 9.36726 1.29128
611 1 2.82761 9.4419 1.91846
853 1 16.1178 -3.24068 1.83027
1811 1 5.40087 -4.74854 1.58811
1113 1 3.92396 23.5114 16.2763
1418 1 5.07446 23.4539 16.3244
545 1 1.93298 9.58667 3.57123
307 1 7.21844 -4.53966 16.6151
1001 1 4.32837 8.91548 2.61581
2012 1 20.1225 -4.22501 3.72655
528 1 6.29987 9.99972 2.63642
1775 1 19.3024 10.1026 17.2211
1680 1 -6.00276 8.19065 15.776
13 1 7.84488 -3.93457 3.70087
2040 1 8.40333 8.9245 16.327
935 1 21.4617 9.76657 2.35785
1259 1 9.7263 10.2777 3.08683
1217 1 -3.08518 9.43318 2.72318
1563 1 23.2675 -17.9071 2.44995
1597 1 10.9984 -4.5313 1.22782
1149 1 -3.44275 8.73104 1.99215
1882 1 25.2371 11.1695 15.5782
351 1 12.454 -3.35004 1.99032
2014 1 14.6787 11.3859 14.9517
956 1 0.375014 24.0806 1.30486
1003 1 14.574 10.7288 15.8651
638 1 27.0561 -2.35471 3.08676
1861 1 17.0311 12.0313 16.0945
844 1 2.72889 -2.73666 16.3379
456 1 3.69246 13.3073 1.73233
1983 1 4.39064 -2.03299 2.97426
1619 1 4.38339 -0.986902 3.22384
1828 1 4.38949 13.7504 3.56822
319 1 19.1629 -1.70565 1.55261
950 1 5.86067 11.3113 -11.2586
1738 1 6.04412 12.1357 17.5337
153 1 6.05556 11.2002 -10.2549
1358 1 -8.34149 -1.39751 2.58739
1442 1 7.03864 10.4356 17.1645
951 1 -5.03266 10.6283 17.2377
352 1 22.3458 -1.58528 1.87523
385 1 -4.20567 24.7611 2.24597
939 1 10.7335 11.9146 1.87659
868 1 -3.3915 -1.37316 16.793
1896 1 9.63254 -1.50621 15.8806
787 1 -0.715269 -1.57354 2.2073
1875 1 24.151 -2.8449 2.49658
644 1 -1.87816 -1.39003 15.556
1258 1 -15.5101 12.7081 3.70825
1540 1 0.0261298 -2.5305 15.6977
398 1 -0.791261 12.2968 1.20288
316 1 13.3321 -0.641827 -11.5643
1260 1 2.30937 11.9183 16.5333
795 1 12.5384 -1.63771 -10.3313
1747 1 13.6926 13.2464 3.68695
1542 1 -0.102514 -1.33359 3.00126
1452 1 17.1916 12.1906 3.62846
1591 1 2.71839 0.579224 3.10464
345 1 18.454 14.0518 2.50049
1804 1 3.01708 -0.725638 16.601
1209 1 4.49499 -0.792346 2.19482
162 1 6.48247 -1.61599 -11.898
1863 1 19.1932 -0.813608 30.7169
224 1 6.43079 13.3432 3.31562
899 1 -7.76363 13.2941 29.4608
216 1 6.7315 14.0992 2.69151
1559 1 7.11059 -2.10491 17.0704
243 1 7.46098 -1.02966 -10.1617
227 1 -4.69949 14.108 17.9784
891 1 22.1594 13.1231 17.3994
1600 1 8.17431 0.511596 17.2213
718 1 8.28398 13.4769 16.3048
1529 1 10.0484 13.3202 15.5225
928 1 -3.43455 -0.14959 16.5588
2041 1 10.9657 -0.765946 16.0945
1961 1 10.7833 0.360145 18.3269
1564 1 14.4036 -0.367394 15.311
347 1 12.5083 13.4236 15.3751
1843 1 14.42 12.9116 16.3146
1278 1 0.304833 13.5243 4.61487
940 1 -12.0455 0.0468686 5.68332
112 1 0.574482 1.02716 4.61795
1640 1 17.1655 -0.276297 3.89306
1666 1 2.15913 28.2725 18.5393
892 1 3.80225 13.9159 16.382
1424 1 17.6071 16.2164 5.32323
526 1 3.16417 1.60902 4.67803
796 1 4.88041 -12.6161 3.5729
370 1 16.3512 14.7232 4.03836
2016 1 5.6299 14.3081 16.5362
1533 1 17.87 15.5312 18.2469
1786 1 20.4523 15.7282 18.29
786 1 21.8081 -11.3895 -9.43419
1998 1 -4.70747 -0.768952 18.4595
412 1 23.1711 2.25483 -12.5058
858 1 7.96452 14.1213 4.58625
2027 1 7.32034 -0.0882827 3.89571
1499 1 36.0315 1.4804 17.6944
1385 1 -1.38239 1.82346 2.47711
788 1 11.7002 -0.329975 4.40839
1350 1 -14.3355 0.394623 17.564
242 1 11.5495 0.517999 -9.85204
1052 1 13.356 15.0363 4.22453
832 1 13.9591 16.636 3.54985
1791 1 27.5967 16.0019 4.45863
1021 1 15.5948 17.365 4.28628
12 1 2.24921 15.7592 4.10024
703 1 16.9141 -9.96896 2.8877
1096 1 17.4044 2.6786 4.03973
165 1 1.2264 16.5929 -9.83881
331 1 5.56284 1.68663 -10.7455
1190 1 4.62308 3.5306 16.4949
279 1 19.4018 -12.7728 4.64054
462 1 6.4599 16.0771 2.85851
166 1 -6.94938 -10.5093 17.1538
1601 1 -6.13657 2.68012 16.2177
1312 1 8.90468 3.65547 19.3792
196 1 -18.7556 2.83407 -10.3748
1337 1 20.776 2.29379 3.66298
753 1 9.73486 16.8868 3.036
1947 1 9.72363 1.3273 16.6907
1130 1 10.6544 0.829786 3.06637
1015 1 -4.32046 15.8502 3.68895
271 1 -0.766037 3.72886 -10.2738
2 1 -2.50762 15.2838 2.71107
1608 1 -2.6281 1.31013 17.9313
1851 1 -2.87632 2.36262 4.98739
1332 1 13.3977 2.1986 16.5277
330 1 13.9617 0.0438511 2.82499
67 1 -0.690489 15.9941 3.84269
453 1 -15.1104 14.7504 4.49524
1347 1 0.621374 3.72665 4.72509
815 1 -0.470918 4.50026 2.66519
1473 1 14.8927 30.8728 2.93253
720 1 2.30339 3.11118 3.47682
2020 1 4.68394 15.738 17.1308
59 1 4.58076 16.8085 -9.97128
413 1 17.9327 4.81584 2.58371
1301 1 17.989 5.3727 4.6454
1816 1 18.6014 4.22875 3.9484
2044 1 6.01819 18.941 3.44835
1651 1 7.7173 3.29145 17.1698
1571 1 5.83636 -9.62823 17.001
1430 1 22.7768 17.7213 4.63279
229 1 -3.22931 18.0191 -9.1301
783 1 9.15733 -8.99666 -7.87832
1588 1 -2.06488 -9.38966 3.72949
602 1 11.3899 3.17476 4.48301
1528 1 -1.47631 16.6469 17.6217
238 1 13.7426 4.22822 3.78248
1035 1 1.56757 5.27521 3.96721
658 1 -0.138253 5.30592 3.9136
305 1 13.3811 6.22736 -8.50282
193 1 0.388544 4.4588 -11.5839
1397 1 15.0083 5.88883 14.9851
171 1 1.87052 21.2664 4.67483
432 1 1.3707 18.9408 2.89079
1108 1 16.4505 -7.28541 4.13125
1648 1 15.5672 6.23611 16.7436
879 1 5.11809 5.62141 2.9888
1032 1 -10.5563 5.9363 2.8881
2028 1 5.21918 19.8087 3.95002
693 1 5.37008 -8.5901 -9.39872
949 1 4.08956 6.35466 3.39815
1272 1 8.09403 4.30807 3.17412
1834 1 -5.04919 -8.7631 31.0825
782 1 9.07161 4.82063 16.5038
540 1 -6.71516 4.61567 3.52039
1324 1 -3.61989 4.95331 -10.2313
1985 1 -5.07705 5.77649 16.8301
1449 1 -2.58196 5.18429 4.46438
1175 1 10.5763 5.74484 2.40957
1814 1 11.0639 5.0574 16.6372
1781 1 11.7284 19.0064 3.72774
225 1 -17.5583 -8.46649 4.87099
586 1 10.8958 6.03213 -8.7901
1495 1 10.5471 19.7241 -10.3468
1981 1 12.5124 4.80312 17.5052
1835 1 1.19137 4.31949 3.59325
1839 1 12.0893 -8.93981 16.3848
1749 1 12.9291 19.7228 4.27277
504 1 28.3847 6.86015 3.23936
1484 1 0.876425 7.02175 4.24168
1979 1 3.74058 7.37315 17.2595
109 1 17.3983 -7.53341 4.40383
509 1 16.7131 20.1661 2.0254
903 1 3.92993 6.84349 16.185
1551 1 5.93093 6.37666 16.6721
751 1 20.6185 5.92203 3.65699
1321 1 -7.46615 7.27238 3.96448
1266 1 4.42457 7.03974 5.01599
1453 1 -6.53366 6.91818 3.92841
941 1 7.56813 5.24913 4.2078
1081 1 8.91901 20.4771 3.11879
547 1 -4.48453 -6.1803 4.95699
1832 1 -4.15882 5.90053 29.9598
1728 1 9.57009 5.95569 17.3937
1451 1 10.9505 6.86291 3.6913
1314 1 -4.99062 5.23969 4.90676
774 1 10.4218 -6.71482 18.6393
604 1 10.2928 7.65734 15.9473
420 1 -1.98275 20.4725 -8.57559
1997 1 -1.12465 6.56655 17.0804
41 1 -0.490459 -6.18636 3.27823
1439 1 26.5447 7.82688 17.8856
1797 1 14.4906 -5.50105 15.495
870 1 -13.2238 8.15816 16.4624
342 1 14.4574 -7.23587 5.10335
962 1 14.0582 10.1729 4.20182
471 1 2.95675 10.084 -10.5718
1345 1 1.08816 -4.74124 16.8097
1276 1 1.61831 -4.9764 -9.42884
1017 1 3.2616 22.7168 2.77767
1743 1 4.91895 22.1594 4.18549
332 1 2.83886 8.00764 3.08446
581 1 4.93763 7.816 16.9042
1862 1 19.4273 22.14 17.2109
648 1 6.69419 -5.15563 4.09305
698 1 34.1481 21.2137 4.82569
249 1 8.39733 20.7023 4.52899
371 1 -4.38999 7.29119 3.91159
468 1 6.80367 6.83368 -10.9415
515 1 -5.04916 -5.72368 16.7815
200 1 -3.47513 9.76883 3.72802
1184 1 9.35323 -5.42087 3.87293
1206 1 11.4081 7.98322 15.9386
651 1 -4.16296 8.33039 2.71712
860 1 11.1264 7.83332 4.57479
1530 1 11.3375 22.3846 3.08626
1359 1 0.330164 7.69617 17.4841
533 1 12.0359 -5.78874 3.13154
538 1 -0.368054 22.5289 4.43999
1789 1 -0.0153187 7.87524 18.7432
1631 1 15.4405 10.4102 2.6672
309 1 13.6335 -4.32472 3.43183
1974 1 14.5277 10.0414 16.9233
1800 1 0.367204 -18.2216 16.0691
58 1 16.6078 -3.6033 -9.50943
1303 1 17.78 10.2687 4.39076
1196 1 3.74209 10.8675 2.92255
268 1 18.3964 -3.16825 3.3504
866 1 -10.5629 -2.48991 3.74063
1767 1 3.78711 9.68318 17.3035
542 1 4.83997 -4.2067 3.78769
1849 1 7.97798 -4.96773 3.59594
1429 1 7.13247 -5.74304 3.0477
934 1 8.28637 10.2439 4.64089
2009 1 -3.3374 8.78408 3.54641
275 1 11.6297 10.4216 2.66603
1509 1 10.3194 11.1585 3.41358
1757 1 9.54284 -1.8662 5.18088
472 1 9.0508 12.0099 4.31599
1830 1 12.1481 -3.99929 17.0884
76 1 12.9885 10.217 3.12352
10 1 12.2749 11.3992 2.64174
2023 1 -2.61988 9.31698 4.28333
380 1 12.0505 -3.06241 4.71864
1801 1 -0.98317 8.69674 3.61073
923 1 15.3232 11.7637 17.379
1159 1 0.725392 -16.3967 3.57469
843 1 27.312 10.1538 16.0118
647 1 -11.2588 -2.64269 4.58223
218 1 2.20078 10.672 3.60752
519 1 4.22141 -2.31556 4.21247
1234 1 3.39761 10.6638 5.03986
1099 1 19.0574 -3.4222 4.77825
811 1 7.09089 -17.4308 4.42816
737 1 -6.0488 10.927 17.8356
1463 1 20.5068 11.7671 4.41546
674 1 8.12864 11.8776 3.87511
1215 1 21.9952 10.1746 5.57496
2046 1 8.58721 11.2583 18.4189
1191 1 9.28146 11.8853 16.9996
1790 1 9.73349 11.1101 18.1079
1169 1 10.1566 12.0451 4.25179
1685 1 9.60012 26.003 19.7855
1150 1 11.1546 10.1923 3.87651
667 1 10.7712 11.1293 4.47942
368 1 11.0965 11.8838 3.8045
334 1 -1.89031 11.0637 3.55417
1891 1 -1.98756 11.4631 5.3913
1670 1 -0.785543 13.0731 4.25165
1141 1 14.0252 12.5496 5.11778
1360 1 3.12495 -1.04515 5.19114
1374 1 2.45374 -1.06644 4.07645
1092 1 -9.85605 0.670839 17.8527
622 1 16.8375 11.8437 4.57941
1935 1 18.0228 12.7079 17.9551
294 1 -10.65 13.8269 18.3764
974 1 5.01018 11.979 3.77565
2015 1 19.0759 13.8228 4.05916
895 1 21.9653 -1.56139 5.12139
1478 1 6.05842 13.1042 18.0628
86 1 35.775 -16.0647 5.86852
779 1 7.18453 -0.90078 -8.99092
826 1 10.1379 0.627072 15.9225
1858 1 9.53521 -0.720283 17.4118
1943 1 -3.51936 -0.768655 18.6862
534 1 -3.57962 0.204167 3.84151
320 1 -2.38301 11.7909 2.76608
1271 1 12.1175 11.7961 18.1189
341 1 0.695041 -1.32059 -10.0384
739 1 -2.87108 26.5953 4.1019
428 1 -0.778086 11.4797 5.03887
123 1 13.1459 -0.235971 5.4189
1510 1 12.2378 14.7608 5.89618
1751 1 13.7152 28.2678 5.67242
1758 1 15.6072 16.9068 5.84124
179 1 15.7874 13.1683 4.91277
1677 1 3.65325 13.5868 5.64148
254 1 16.4748 14.2586 -8.00923
1877 1 2.05139 1.88458 18.8119
513 1 18.5187 -12.8041 5.30857
134 1 4.40645 15.4425 -7.92559
1946 1 34.2709 15.6201 7.04692
1727 1 6.69482 1.45726 5.94347
1065 1 -7.24548 0.70343 3.76135
791 1 6.8935 0.995824 18.6671
980 1 7.94498 15.1256 -6.78069
636 1 7.99358 15.1779 4.8771
1872 1 -5.0812 1.7076 5.75289
1479 1 -5.5478 29.2419 2.78555
133 1 -4.28186 14.8394 6.18065
117 1 9.1519 1.15363 -8.63033
80 1 -4.83812 15.5748 6.83368
437 1 10.3871 0.373932 6.0986
890 1 -3.87183 1.23559 4.1159
19 1 -1.91095 0.379894 5.11163
637 1 -2.58132 1.04021 7.01078
146 1 11.1364 13.568 -6.68038
784 1 11.1897 1.34521 -8.38887
1936 1 -1.56148 1.46118 20.5283
942 1 11.3581 0.642331 6.06735
1290 1 1.2 1.19831 5.54099
464 1 -0.396019 17.0607 4.35388
1088 1 1.37326 15.8469 5.89889
790 1 2.53331 2.92424 -8.96485
1223 1 2.14149 3.99654 5.34795
1638 1 3.08358 16.7417 19.3238
944 1 17.0046 0.149992 6.72362
661 1 5.52529 16.5156 3.35025
1514 1 4.8878 2.8171 4.68609
1078 1 17.4224 14.6288 5.23026
1587 1 5.91089 2.9473 4.43863
1392 1 5.21773 1.82615 18.6619
444 1 -9.40908 1.98475 6.97988
563 1 5.48164 1.38128 5.90592
675 1 5.4836 17.0338 -8.17624
579 1 20.3737 3.81448 4.59055
1104 1 19.6703 2.03565 -9.89469
255 1 8.2649 3.37394 4.40107
705 1 -6.34393 2.17378 -8.06077
1313 1 -4.80701 16.0974 5.0238
1770 1 10.1826 4.24101 5.75905
1805 1 23.6011 2.23846 5.59928
488 1 -3.39588 16.9181 4.24793
70 1 -4.70167 2.94938 7.20292
1433 1 9.88604 2.26774 18.2802
670 1 10.5267 3.01385 -7.44415
181 1 12.4675 17.2536 5.44418
213 1 12.7399 2.32398 -8.65767
84 1 10.1818 1.24544 5.09654
1664 1 14.9457 18.1235 -8.96366
990 1 14.9471 16.6474 -8.77394
953 1 2.24495 4.93922 -8.98126
390 1 2.88121 3.98284 4.04847
108 1 3.91149 3.50091 18.665
5 1 3.97076 -9.772 -9.58717
1400 1 18.254 4.38422 5.12177
1500 1 4.80187 3.96809 19.7216
1991 1 3.37081 18.6512 4.32951
339 1 5.58135 18.2279 5.53036
1659 1 5.66339 3.92797 4.67887
127 1 6.61744 16.6441 -6.94615
702 1 21.4118 31.6623 4.5108
1846 1 7.95043 3.10873 5.59608
38 1 8.13806 4.24087 -8.20753
1410 1 8.32595 4.66964 6.6387
1708 1 -5.46911 17.2827 6.52136
1612 1 -3.97713 3.59159 20.141
452 1 8.97603 16.4559 6.10173
732 1 9.31251 17.8713 7.3167
1847 1 12.2299 3.91675 18.129
652 1 -2.18034 4.18331 -8.31708
1466 1 11.8217 1.9926 18.1809
1241 1 14.4912 19.796 16.0702
355 1 0.464921 5.43591 4.80485
1112 1 1.82617 6.24641 5.5324
1949 1 16.2536 5.09846 3.64894
337 1 3.40791 20.8478 -8.99547
766 1 15.4127 19.9911 4.26844
750 1 2.73887 5.83526 5.24626
1354 1 17.6819 6.03363 5.38237
1625 1 3.49142 5.6108 6.22726
142 1 3.15615 6.74732 6.12168
417 1 -7.41847 19.1802 5.40636
1320 1 3.86534 4.93226 5.53249
375 1 18.568 5.331 5.64435
1394 1 6.71231 -9.15234 18.923
1960 1 -7.11589 18.7136 4.4021
1089 1 -4.09062 6.33266 18.4671
357 1 7.43603 5.37426 5.17729
2006 1 10.7236 5.23348 19.2295
1086 1 11.6468 -7.39835 4.12096
564 1 -2.48066 4.53465 6.33961
1561 1 -1.6248 5.71927 18.6741
101 1 12.8699 7.12766 -8.61014
1756 1 14.0973 18.2152 5.55944
317 1 0.596896 -7.71504 6.03032
1663 1 16.5994 8.01239 -9.53577
1817 1 17.8103 -5.74298 4.48008
1771 1 15.7584 20.1882 -6.33197
882 1 17.8068 8.43929 5.6776
1815 1 15.7655 7.27161 19.7382
817 1 4.16153 7.25886 6.06188
1889 1 5.15947 19.7391 18.6702
704 1 18.7082 7.95783 5.24705
1060 1 -9.06401 6.94031 4.01553
1654 1 8.34755 5.95944 4.27473
261 1 6.09179 6.10199 4.43839
554 1 22.2651 -7.38131 5.43607
1207 1 6.33158 6.59868 19.015
418 1 7.2975 7.77693 20.7962
1690 1 5.44386 7.11715 4.69259
295 1 -5.20122 8.17841 4.51771
1736 1 9.39736 8.96495 20.2701
523 1 10.0286 8.03185 19.1888
164 1 -3.3866 -7.87657 6.46854
711 1 9.45021 6.55253 6.04026
1904 1 -1.15268 19.8632 19.3217
1219 1 11.6564 7.11213 6.11776
252 1 9.84099 18.4754 6.60562
168 1 10.8588 -5.77685 3.48465
484 1 -0.450042 5.32856 5.71493
1754 1 13.5274 20.5873 4.3952
1953 1 2.53283 6.89637 5.1317
55 1 14.6388 8.46571 5.05297
1673 1 3.20042 -5.95782 5.73995
1022 1 29.1723 -5.82797 2.49302
1919 1 15.2973 -4.15579 5.15097
1951 1 17.534 8.38815 17.2025
1516 1 5.8954 8.25872 4.68598
223 1 7.31574 19.9013 -9.01557
893 1 21.2053 -5.75416 4.11911
1517 1 6.93057 8.68019 5.11459
668 1 9.39307 8.66376 4.90192
119 1 8.67037 8.08075 -7.72672
1261 1 9.13837 9.27592 3.43766
671 1 22.4831 9.94824 6.51446
1538 1 9.99744 10.0273 19.9627
1148 1 10.9946 21.3878 5.55761
167 1 -3.58222 7.76552 4.31399
1497 1 9.49939 21.353 6.8558
654 1 -1.75844 22.5328 -9.25045
794 1 13.6764 -6.43715 20.863
958 1 12.0105 7.37972 4.07526
1796 1 -0.362515 10.9795 4.00138
684 1 14.2959 25.1854 4.63854
525 1 1.53261 -3.43081 4.32583
1441 1 0.711291 -4.71662 -9.53749
1277 1 16.0359 8.85017 18.5851
570 1 18.0479 10.7915 5.33774
1632 1 16.6593 -4.67952 3.87628
2008 1 5.92541 9.3698 4.73598
932 1 -6.15907 9.05687 4.41497
1322 1 -7.65081 9.79227 5.77505
1176 1 7.23363 -3.87355 19.0936
823 1 7.52586 10.8107 5.373
1040 1 7.87748 -6.43401 5.34201
1200 1 8.65063 -4.42646 5.44293
1480 1 -4.40873 23.6095 18.5892
1027 1 8.51643 9.23596 4.42648
1268 1 10.4424 -2.93033 -8.04549
639 1 9.61126 9.34222 5.62696
1748 1 10.464 9.45677 7.07193
969 1 -4.24811 11.385 6.54406
1622 1 -3.40379 9.99863 18.5649
1959 1 -3.25693 22.3776 4.71955
1194 1 11.1256 12.4006 6.8182
1396 1 12.9383 9.81703 17.9306
752 1 -2.52482 10.1658 6.32135
1422 1 -0.0955034 10.4866 18.7311
1869 1 14.2776 25.1875 19.3218
2042 1 13.8873 23.6475 19.5677
1477 1 15.1049 11.14 18.6309
28 1 2.61384 9.72906 5.34597
161 1 2.46472 12.1985 6.0057
688 1 2.63669 11.1886 6.91129
1328 1 4.57995 11.1897 6.23677
1553 1 6.57966 -2.80937 4.70273
1045 1 7.12626 -1.20548 6.75257
1806 1 5.56865 -2.66249 -8.13033
1766 1 5.8273 10.5534 6.44087
1928 1 -6.30266 10.1469 6.35376
184 1 7.39932 11.7385 5.8394
1871 1 7.86511 -2.68536 20.4437
1725 1 9.40232 -16.6704 5.78673
170 1 8.22941 -1.62344 -7.07188
2010 1 10.5104 12.7762 6.1051
1918 1 10.1026 12.041 7.08519
1460 1 24.1089 11.7408 19.5962
433 1 -1.32424 11.0661 6.29049
1436 1 11.0971 12.3414 18.6516
1454 1 13.3582 11.9753 17.9662
1267 1 -2.35417 10.0221 -8.39699
1101 1 12.7133 -3.2907 5.56701
1701 1 0.63372 13.7726 5.51102
1642 1 0.46581 -1.16889 -7.48264
1605 1 4.49512 0.177699 -8.98093
1115 1 2.00394 -1.54724 18.6803
539 1 14.8017 -0.813229 -9.17464
17 1 1.28524 -1.01568 5.6005
1740 1 2.74617 13.2793 6.09665
1355 1 3.51625 -2.02269 19.1987
2002 1 -8.05654 12.0593 19.332
1720 1 5.52451 11.4556 4.54838
981 1 31.9432 11.8808 -8.53385
708 1 -7.4648 0.159507 5.28628
1939 1 6.37184 -0.975406 19.1239
2033 1 6.48003 11.6734 5.53574
1450 1 5.92416 12.3789 6.66902
126 1 21.063 0.124526 5.31115
23 1 7.56993 12.7964 -7.91357
1906 1 -4.4158 0.131416 6.05742
830 1 7.68828 1.14342 5.91573
1768 1 -4.91977 12.9499 19.5303
743 1 -5.31801 14.1549 5.5727
265 1 -4.4276 -0.592018 6.78549
1932 1 9.67601 0.0641196 18.671
1995 1 -2.66101 13.3671 5.53492
793 1 12.1619 13.406 6.00707
1776 1 13.0926 12.1504 19.5179
758 1 12.3554 12.9098 5.12694
1406 1 26.6101 14.3004 5.09798
1653 1 2.36027 1.8187 6.12492
180 1 -0.197446 -0.00927392 -7.06822
635 1 28.5779 1.17178 7.40175
1712 1 3.12103 14.8403 6.63582
415 1 19.1051 13.3088 6.03563
1512 1 4.52243 -0.760262 19.2622
145 1 3.36701 15.6065 7.70663
1536 1 5.90072 15.0062 7.02353
1810 1 7.42248 1.5338 21.5764
1955 1 -7.66056 2.50521 5.88891
964 1 -6.40347 13.2918 7.38536
957 1 20.6836 0.796388 6.77221
493 1 7.96569 15.1943 8.9566
329 1 8.66712 14.9133 -6.06085
313 1 26.0183 14.0975 6.79988
2024 1 -1.47056 13.7249 21.6569
463 1 11.3838 13.3602 8.37754
608 1 14.1244 15.2647 6.8619
1366 1 13.0959 14.7227 7.20327
201 1 13.8351 15.4347 -5.63049
1140 1 0.968905 3.11215 6.43617
1117 1 0.13116 2.99068 5.29805
1524 1 14.1085 15.5615 5.43877
690 1 13.8082 2.61003 -7.43096
1132 1 -1.54056 15.7899 -7.77518
1908 1 15.1447 2.05081 6.94971
282 1 3.28008 -11.9352 -7.98822
546 1 -10.5637 2.29183 6.72715
503 1 -9.56663 14.6873 6.3424
904 1 4.90943 18.6577 7.62579
592 1 -9.80819 2.93402 -6.48389
81 1 4.37976 -0.00831682 6.5423
276 1 -8.44287 0.685302 -7.03504
660 1 3.7207 4.05336 -6.17876
1381 1 -9.02774 3.57057 20.6893
263 1 19.7209 2.29211 7.81773
1762 1 -6.36656 16.6846 -8.99574
2025 1 7.17453 17.4306 6.5819
1905 1 21.1129 2.53783 7.66561
1255 1 -6.01425 2.51628 20.305
466 1 6.9928 3.48008 5.55181
998 1 -3.91289 16.1582 6.7124
672 1 8.89812 15.5206 22.4232
176 1 -2.72976 14.5002 8.10007
1427 1 -3.91459 3.1987 5.41105