ITEM: TIMESTEP
50000
ITEM: NUMBER OF ATOMS
2048
ITEM: BOX BOUNDS pp pp pp
0.0000000000000000e+00 1.3679807573413575e+01
0.0000000000000000e+00 1.3679807573413575e+01
0.0000000000000000e+00 1.3679807573413575e+01
ITEM: ATOMS id type xu yu zu
518 1 0.562572 1.10946 0.673664
1132 1 0.0471253 14.2485 1.48331
97 1 0.580902 0.0234951 0.628861
1974 1 15.634 14.9094 14.8537
847 1 1.86802 1.04938 13.726
131 1 1.58627 0.0578922 0.225502
1403 1 2.80266 1.29871 14.085
1998 1 3.29348 0.46937 14.3972
1953 1 3.89278 15.1726 14.6302
414 1 18.1472 14.1255 0.91482
382 1 19.0293 1.30306 1.3378
1810 1 5.31758 0.687189 14.2206
531 1 6.47198 1.32264 0.819457
1318 1 7.29911 0.796719 0.285026
20 1 7.29005 0.0102185 1.0925
1890 1 6.36496 0.25898 0.871383
1069 1 8.46756 0.265121 14.0526
1547 1 8.24872 1.02414 14.663
272 1 -3.31137 1.38607 0.708354
1666 1 -4.44108 15.1757 13.8993
226 1 -4.43965 14.7923 1.1739
1933 1 9.79898 14.0511 14.7545
2006 1 11.4191 14.0553 14.0315
441 1 10.987 14.2697 1.19678
1959 1 -0.7905 14.8794 1.26859
1671 1 -13.9754 0.90349 13.9086
1227 1 -1.30186 1.28779 13.9171
1176 1 12.4308 0.377535 14.227
1636 1 0.837503 15.5168 15.0705
29 1 14.2374 2.83365 1.32854
1815 1 15.1133 1.97156 14.0755
867 1 0.417267 2.6805 0.127358
148 1 1.93463 16.5944 0.747481
548 1 -10.9626 15.9099 1.05787
1599 1 16.61 2.79351 13.6807
934 1 3.83829 2.79823 0.934114
1194 1 5.54933 15.8492 14.2722
674 1 5.32741 16.1889 1.50863
869 1 4.57836 2.88756 13.9741
121 1 4.69841 1.65224 0.187479
1694 1 7.18784 2.00822 14.1951
496 1 -7.22032 16.2492 14.9657
1236 1 8.12343 15.8682 0.913792
718 1 9.1607 16.0421 14.4058
854 1 10.4741 2.45247 0.164464
335 1 10.1266 2.30913 1.31157
1993 1 -2.5117 2.22863 14.7756
1830 1 11.4091 1.56624 14.0654
221 1 11.7155 16.5895 0.438693
450 1 -1.26674 15.8889 0.835081
426 1 -0.219295 15.5763 0.684714
1556 1 13.1355 2.85118 14.9323
420 1 0.957247 17.6021 0.654406
1502 1 16.533 16.9842 14.6774
1358 1 2.41965 4.31608 0.947731
1646 1 2.83838 4.22764 0.000798669
805 1 3.72264 3.53966 0.136419
1605 1 3.38748 4.49192 0.808949
730 1 19.3353 16.8048 0.570353
1730 1 5.82383 4.23677 14.8409
605 1 4.72866 3.89078 0.868775
1429 1 7.53721 3.07089 1.37006
156 1 6.83198 4.52692 1.13793
1371 1 6.6186 3.42545 14.4898
1436 1 7.46897 16.8774 13.9631
1857 1 7.8658 3.95181 14.5403
465 1 8.61769 16.9148 0.825325
1871 1 10.0892 4.12223 14.2391
1411 1 -3.20895 4.18166 15.1866
255 1 9.61292 3.14144 1.25478
1862 1 9.51802 16.8464 13.8145
1512 1 -1.55724 3.40619 14.9971
582 1 -2.96573 3.11007 0.892879
1853 1 11.5859 4.15641 14.4318
91 1 12.8705 4.23394 0.898238
699 1 13.6362 3.83908 0.309344
1123 1 -0.936761 3.37563 0.260684
1535 1 14.0985 19.7557 14.1897
529 1 1.49023 4.62154 1.15881
1093 1 0.556032 -9.04681 13.692
992 1 14.9097 19.3386 13.774
766 1 15.903 19.078 0.818488
1607 1 1.76499 4.58836 27.5205
1850 1 17.9058 4.6998 13.719
799 1 3.43872 5.41851 0.0855111
764 1 3.28646 19.3154 1.2783
330 1 4.37655 4.87119 1.22584
1920 1 19.3583 4.98861 13.9228
1855 1 18.3105 5.70429 14.1533
1286 1 5.32784 -8.49266 14.9745
1433 1 7.25249 -7.99122 14.3901
770 1 6.90049 4.68159 13.7735
298 1 6.35146 6.05448 0.213868
1612 1 -5.67152 5.47745 13.714
1846 1 8.53614 4.69227 14.4136
1931 1 -5.41532 5.66883 14.7629
195 1 -4.12849 4.89022 1.10461
1402 1 23.1089 5.88523 14.1163
1482 1 10.1076 5.79727 1.12163
1595 1 -3.30274 5.16034 13.794
1352 1 -2.50198 5.18872 0.715262
709 1 -2.16642 6.03558 0.194796
1626 1 12.2606 -8.01045 14.4279
523 1 13.044 5.55556 15.1119
302 1 -1.49996 4.79603 0.247669
1832 1 -0.190873 5.3306 27.7644
1957 1 0.578045 6.94706 1.3413
879 1 1.45675 6.09373 0.995136
922 1 13.8749 7.1904 13.9821
707 1 1.74419 21.1858 0.252407
1689 1 16.3883 6.3835 14.5654
455 1 2.71824 7.44593 0.340353
329 1 1.56635 7.23491 1.29551
320 1 3.89799 6.64355 0.661518
1430 1 17.8717 20.889 1.48946
300 1 5.39979 6.33313 0.64955
1024 1 5.94181 20.8824 0.44654
1461 1 4.69007 7.27265 14.2538
2040 1 6.55606 6.91015 14.8851
223 1 7.5704 20.3597 0.579617
1765 1 -5.04029 6.77898 13.9552
746 1 -5.96703 21.0221 1.29637
133 1 -3.49054 7.47458 0.857287
1518 1 9.35174 20.4971 14.6177
112 1 10.5447 6.47708 0.42572
1118 1 11.2804 7.45562 1.49189
444 1 -2.53444 7.30325 0.235559
1030 1 11.2418 -7.34466 1.21003
1207 1 12.9865 6.49788 14.0218
1696 1 12.2346 7.35051 14.0147
1099 1 12.327 6.5378 1.35416
599 1 13.326 6.77472 1.28956
1690 1 14.8357 8.48409 13.7833
391 1 0.471825 -4.71274 0.749776
160 1 14.7427 8.15822 0.971148
433 1 2.33692 8.62562 0.135782
443 1 16.0161 8.16592 1.21378
1033 1 2.77669 9.10358 0.962594
683 1 3.44034 8.18154 14.6795
1809 1 4.52359 -5.3867 13.7935
634 1 4.58629 8.29066 1.1868
336 1 5.67827 8.12633 14.6272
1428 1 7.32362 8.40803 1.13907
1243 1 6.83178 7.76638 0.562362
1439 1 20.0719 8.84238 13.8285
2012 1 21.9694 8.90142 14.7307
1852 1 8.70879 7.78499 14.8116
1859 1 -5.62194 7.93264 13.9877
280 1 9.21633 8.11473 0.312018
1813 1 -3.47416 8.42626 14.1989
840 1 9.37927 8.66138 14.8573
1000 1 -3.25002 22.7764 14.904
179 1 12.1294 21.8099 1.04387
1651 1 11.2337 8.31832 14.423
520 1 -0.817936 -4.93132 0.574998
383 1 13.4844 7.95463 14.6929
1247 1 15.0243 9.28617 14.7072
1877 1 1.67028 10.3091 14.4294
734 1 16.1638 10.0944 1.29667
109 1 17.5328 -4.53855 1.23025
698 1 17.3 23.2111 0.136813
2039 1 5.44141 9.35503 14.9973
1496 1 5.29303 10.3365 14.2768
1205 1 4.77612 9.35362 14.1122
1861 1 4.7344 10.0432 15.0595
994 1 -6.16753 9.13272 13.999
1399 1 20.8542 10.1579 14.2493
1221 1 6.21919 10.2007 1.37339
789 1 6.60953 -4.39795 14.761
1663 1 8.21679 9.90482 0.638999
785 1 10.0683 -4.13292 0.211854
1940 1 9.25504 10.0543 14.8138
294 1 -4.48032 9.25848 14.0998
1932 1 10.0011 -3.21931 14.291
214 1 11.6227 9.12182 1.30613
1241 1 11.0261 9.8723 14.2632
1504 1 11.9414 9.21532 0.257223
690 1 13.4718 9.97305 0.717369
1013 1 12.4484 23.6926 0.697778
150 1 0.906955 11.9456 0.211999
129 1 0.721526 10.8158 0.614673
1823 1 14.3304 11.8279 14.8675
1574 1 1.63448 -2.27402 14.497
1670 1 2.67203 11.2069 14.6873
837 1 3.93789 -2.94855 0.648255
1961 1 4.91258 -2.67894 14.8629
836 1 5.71856 11.7761 1.01426
583 1 7.42264 -2.77154 1.32681
375 1 19.9253 10.8931 0.493676
172 1 6.74473 11.548 1.42073
1096 1 7.1075 -2.22949 0.440117
1919 1 8.64629 -2.36206 14.756
487 1 -6.02501 11.9914 1.19658
843 1 21.5385 10.8885 13.7043
541 1 8.09927 -1.83763 0.260784
510 1 10.3381 11.12 1.2796
573 1 22.9669 -2.44908 13.8517
2023 1 10.4041 11.503 14.0623
844 1 -2.13839 -1.6677 14.9336
1797 1 11.4311 -2.85134 14.4523
1483 1 -1.92783 12.1141 13.7287
1275 1 -0.84686 12.0344 14.4544
696 1 13.3702 -2.44735 0.66285
284 1 12.2239 -16.1487 0.242657
931 1 -1.21212 10.925 1.19716
553 1 0.205494 -1.07239 14.0474
13 1 1.04477 -0.787243 1.06314
1816 1 15.5363 -1.31968 0.655661
400 1 2.5052 13.3163 0.990706
926 1 17.4146 13.4062 1.33379
290 1 -9.41134 13.1505 13.9943
1948 1 17.766 12.1835 27.9615
537 1 16.7753 -1.29524 14.113
656 1 5.08349 13.5567 15.176
1633 1 4.88311 -1.19392 14.7967
1455 1 4.94394 12.2626 0.116346
1538 1 5.44613 -0.567988 14.1346
136 1 6.86125 12.564 0.650139
1769 1 6.09185 26.5891 14.9759
1487 1 7.20183 13.3447 13.7883
1623 1 8.00085 -0.773465 14.46
1156 1 -4.69618 12.8526 0.38702
2022 1 8.75258 12.3436 15.1468
1462 1 9.88998 12.489 1.39333
1909 1 10.1598 -0.664113 14.1321
1092 1 -2.45621 -0.664735 14.7909
1055 1 12.1214 -0.52482 0.620796
1390 1 13.0045 -0.262011 15.1915
598 1 13.1946 -0.441874 0.543047
341 1 1.24282 0.547905 -12.1213
500 1 0.622294 0.951689 -11.377
733 1 13.8269 13.7819 2.98544
803 1 1.54223 0.872091 2.89697
1510 1 16.2344 14.308 2.69284
260 1 2.40725 0.440785 1.66006
1255 1 3.90652 0.577889 15.6667
786 1 17.3324 -13.0581 2.89549
758 1 18.6529 14.2814 2.17975
1582 1 5.90934 0.525671 1.93296
1774 1 5.9965 14.9199 2.98735
1332 1 7.13637 1.0293 15.2519
788 1 7.24104 0.130642 2.16518
1226 1 6.95781 14.4398 16.5469
49 1 7.84011 1.10029 2.38459
2046 1 8.79569 14.3892 15.8088
1652 1 -5.63559 0.304738 3.01393
348 1 10.3243 0.736248 1.91426
1324 1 -3.70824 0.531183 2.87872
943 1 -1.90404 15.193 1.54015
1737 1 -2.40609 0.802076 15.9669
1503 1 25.9832 14.3198 15.5717
743 1 -0.467069 14.4514 2.5377
574 1 13.6989 1.97692 1.99834
456 1 1.09142 16.5306 2.6812
1891 1 0.492863 1.76553 3.02438
457 1 2.70401 15.3092 1.93911
1362 1 1.58942 1.87066 2.47692
1851 1 1.71453 2.47328 15.4228
38 1 2.30004 2.98272 2.60754
1762 1 3.56506 15.392 2.52949
466 1 4.45564 2.0247 1.80405
1438 1 17.0555 16.3917 1.83535
613 1 3.99084 2.90831 2.68884
1624 1 4.53529 2.03504 16.6456
1193 1 5.2411 16.5897 16.2076
712 1 5.23837 15.3372 2.2796
218 1 5.98985 15.9927 2.68055
513 1 7.40437 -11.6022 1.87503
1525 1 6.91067 15.4716 16.5129
1396 1 6.34244 15.3522 15.5873
1281 1 -5.18075 2.93613 1.89492
1151 1 8.57783 1.69009 1.78039
1942 1 8.20667 15.5989 2.7489
381 1 9.05574 2.53812 2.67217
828 1 9.90585 1.78435 2.19797
486 1 -3.4467 16.5985 2.27476
1806 1 9.19757 1.59201 2.99262
399 1 -1.90144 1.83863 2.98456
512 1 11.0135 15.8303 2.2894
1548 1 -1.62276 -11.2092 15.62
1883 1 12.6235 15.3191 15.9585
524 1 -0.0160291 2.87132 2.61743
609 1 -1.0591 2.50181 3.00055
596 1 1.02043 3.74896 2.1388
1662 1 13.9194 3.92513 2.83246
1385 1 2.96722 3.89282 1.96199
753 1 1.86126 17.2783 1.53775
261 1 3.92806 3.54975 1.74976
1934 1 4.27329 4.21356 2.52584
350 1 17.0646 3.82375 2.85476
665 1 6.03199 17.8721 2.29399
442 1 18.7543 3.78006 1.84911
619 1 6.09401 16.8819 2.02123
1718 1 21.0881 3.04568 16.1762
295 1 -6.66132 4.01608 2.29785
93 1 22.5113 17.5209 2.49319
480 1 8.0235 17.8702 1.87632
1143 1 9.145 4.0245 1.52466
155 1 9.82371 17.5881 2.31516
360 1 -2.44215 3.29371 1.83444
459 1 -2.29663 4.53913 1.89243
464 1 -1.7943 17.8938 2.65821
586 1 11.6498 16.9108 2.8078
412 1 10.8174 3.8542 2.58341
328 1 -0.901493 3.15435 15.8439
209 1 13.5725 17.4497 1.70904
861 1 14.2433 5.92693 1.63564
749 1 1.45331 4.62766 2.4447
893 1 14.2613 -8.32948 2.55784
612 1 0.343088 4.89812 1.57557
123 1 15.2244 5.52945 2.00719
603 1 16.1314 4.82508 1.89055
40 1 2.30733 4.99046 2.93704
721 1 3.03759 19.3213 2.4296
262 1 3.64164 -8.85479 1.92982
2036 1 4.50616 6.06847 15.2264
437 1 4.274 5.40619 2.62024
332 1 5.11466 4.76337 2.15566
1075 1 5.44956 19.6697 2.12698
1389 1 -7.13145 5.67991 1.58397
1881 1 6.10621 5.22332 16.2861
413 1 7.29104 5.77934 2.55168
592 1 -5.35638 6.06842 2.62556
105 1 8.03979 4.94408 2.75414
653 1 -4.89022 5.1434 1.77034
794 1 7.63517 -8.35467 15.4547
1171 1 9.48816 4.88768 2.48215
1320 1 9.37651 6.00982 1.86216
481 1 -4.31178 6.06679 2.89807
1856 1 11.7832 5.58078 15.5281
417 1 -2.96852 18.9428 1.69155
50 1 11.0861 6.0134 2.74907
1707 1 11.3602 5.03453 16.562
1002 1 12.4434 18.3292 1.82909
1645 1 -0.363223 4.61758 2.38479
716 1 -1.21799 18.6234 2.9881
1409 1 -1.29962 5.92627 2.61523
132 1 0.94656 20.1743 2.33182
751 1 15.1232 7.38269 2.26508
1751 1 13.6924 21.0448 15.9268
380 1 15.7644 6.4818 1.98671
495 1 16.3121 7.19744 1.61861
96 1 16.2681 7.30641 2.79627
1882 1 18.1924 6.60804 16.0474
644 1 3.42373 6.53212 15.6814
1333 1 17.5849 -6.29367 16.4879
874 1 5.44614 7.03754 1.72088
750 1 5.98803 7.34327 2.66388
1899 1 7.54448 6.9042 15.941
1873 1 6.58771 6.58007 15.9382
921 1 8.38408 7.38751 2.68881
1630 1 22.1423 6.68802 1.75966
807 1 9.44751 6.96845 16.119
1391 1 10.1424 6.64278 1.77274
1136 1 10.2343 6.56006 2.89897
2038 1 11.7787 20.6492 16.2261
1197 1 10.6866 7.37985 15.9911
611 1 -0.154371 6.32898 2.16462
813 1 -0.856379 6.84411 2.8969
1805 1 14.1658 8.48121 1.98372
1405 1 0.902027 7.90968 2.99486
1668 1 0.306354 9.02488 2.90676
976 1 1.61278 8.30884 1.94727
1966 1 2.30774 8.71128 16.4656
1896 1 2.81667 8.10982 15.8419
580 1 4.35456 8.84823 2.92833
1796 1 3.7341 8.61125 2.25058
1095 1 5.87911 8.54323 15.5126
686 1 4.89994 8.01061 2.34716
462 1 5.61581 8.3439 3.00043
1265 1 6.63969 21.4063 15.5131
1357 1 6.62739 8.72088 2.65582
84 1 7.10654 7.74765 2.8954
1215 1 21.7813 8.24901 1.89629
203 1 -5.1509 8.38462 2.86087
1831 1 10.2968 -5.61185 15.4096
1775 1 9.57274 8.59895 16.2898
1250 1 9.12904 7.80407 15.7663
448 1 11.7377 8.36878 1.97443
832 1 12.5916 7.71336 1.95433
872 1 -0.588316 -4.99485 1.6776
1423 1 -1.1709 9.07625 16.3255
1248 1 13.2194 8.24661 2.66224
435 1 0.47859 9.60564 1.61828
1089 1 1.20006 -3.38832 15.3371
902 1 1.26433 9.48455 2.47469
1317 1 2.32672 -3.06821 2.61837
1590 1 2.1148 -4.48512 1.91814
1070 1 3.10819 -4.2118 1.96818
356 1 3.24187 9.2188 16.6568
572 1 3.99763 9.77983 2.57333
24 1 3.44275 -3.16846 1.52756
1040 1 4.67244 -4.49831 2.03565
1032 1 -8.15005 -4.03377 2.32097
253 1 7.46955 10.3531 2.31543
317 1 6.60976 -3.85336 2.19717
878 1 7.64021 9.57981 1.61794
591 1 8.54036 10.2147 2.21099
1613 1 8.7012 9.13931 15.6747
1532 1 7.72766 9.16485 16.2485
566 1 8.80126 -4.22648 3.03029
2019 1 -4.00472 9.8046 15.835
1604 1 9.28646 10.4256 16.551
1440 1 24.0075 9.5277 2.95281
344 1 10.1784 -3.08026 2.42623
1138 1 -2.89662 10.0515 -12.0188
193 1 -2.42286 9.29073 2.25864
1295 1 11.8044 -3.54669 15.302
1331 1 -2.63819 -3.14864 3.02051
987 1 -1.70659 10.561 -11.0541
1593 1 12.831 -3.69134 15.4302
932 1 -0.0365512 9.89672 2.51586
808 1 0.387413 -2.01721 2.40334
451 1 1.35587 -2.06442 1.84415
912 1 0.159197 10.674 1.87943
1244 1 15.2591 11.5127 3.0033
11 1 2.55576 -2.19919 1.98012
1642 1 3.82017 -2.15766 1.61567
1038 1 4.41658 -2.87219 2.24192
1297 1 17.2526 -1.61601 16.1478
857 1 3.37849 -2.69193 16.2243
185 1 6.07579 12.0756 1.93421
198 1 -8.21954 10.6484 2.05893
1738 1 5.08463 11.6671 15.7122
216 1 7.49023 11.333 2.90941
1327 1 6.51981 -2.36572 2.43652
208 1 8.04194 11.5344 2.12644
1886 1 8.74252 11.3209 16.5837
1168 1 9.36625 11.0778 1.75535
1388 1 -3.36296 -2.01401 2.24467
297 1 11.24 -2.72272 1.87335
1768 1 -2.08233 11.6142 16.5189
2024 1 -1.51231 11.4746 15.658
1854 1 26.8503 -16.3935 2.60013
2032 1 12.729 11.8942 2.71345
498 1 0.226686 13.2242 1.73658
1217 1 0.996529 13.4028 2.36122
506 1 1.41048 12.432 2.50791
1199 1 15.6723 -0.60919 1.81017
880 1 15.9826 13.3271 3.0382
1907 1 16.5467 12.3955 1.52471
864 1 16.2172 -1.34123 2.68987
1839 1 3.08041 -0.408597 15.9111
1545 1 4.0885 12.6967 1.77209
1322 1 4.4357 12.4597 2.66566
1923 1 4.08818 -0.231336 2.52512
914 1 5.3723 -0.610179 2.41836
111 1 5.65594 12.1953 -10.8313
1511 1 7.13741 12.8205 1.90993
1313 1 -6.77266 12.19 2.98172
471 1 6.30139 13.3532 -11.3198
562 1 8.91235 -0.317211 1.57873
1195 1 8.07482 12.1853 16.6277
1565 1 8.09439 -0.426256 15.9257
715 1 8.8994 12.9926 3.02666
1435 1 9.26714 13.5197 2.40336
265 1 -3.49056 -0.968183 2.46331
405 1 9.19613 12.1634 2.65776
1302 1 11.2448 12.4783 2.19303
1840 1 -1.90856 -0.0941329 16.0592
190 1 12.0661 12.6449 3.00613
479 1 10.6406 13.454 1.86609
534 1 -0.914566 -0.340443 2.62215
1083 1 25.8596 -0.797524 1.74166
1 1 13.3923 -1.3975 1.61833
454 1 -0.19181 12.5805 2.64821
952 1 0.737914 14.4007 -10.0735
850 1 1.51122 1.30926 17.6059
210 1 13.727 13.8027 -9.38423
842 1 2.56146 0.678077 -9.90616
377 1 15.2994 0.01703 3.69995
288 1 17.027 1.32027 3.60874
1458 1 4.48915 14.7578 16.7616
689 1 5.21971 14.1078 3.36452
679 1 5.58804 0.682939 4.54403
1257 1 7.299 14.9984 3.83534
293 1 -7.17491 0.661738 3.80364
1884 1 8.20731 14.1313 17.7635
1979 1 -4.5766 0.305539 17.0869
245 1 9.10146 14.6591 4.19727
741 1 -3.69623 13.9612 4.0856
488 1 -3.63411 15.0584 3.8936
1380 1 -1.54265 1.3155 3.86699
954 1 10.7946 14.8393 3.16824
1018 1 11.2226 14.0747 4.06156
440 1 12.1834 14.2192 3.14162
821 1 -0.686234 13.7248 3.64859
423 1 -0.655072 14.7088 4.29172
1799 1 -0.481952 1.3771 17.043
1530 1 12.1825 14.1382 4.55484
1754 1 14.0252 15.3853 4.10834
175 1 0.674096 2.85792 3.58566
1634 1 1.26622 15.9729 17.9857
419 1 2.39971 1.56634 3.07939
1289 1 1.85876 2.68831 3.48223
1776 1 2.57214 16.3999 17.9859
977 1 16.3109 15.3743 4.20839
602 1 17.9152 2.10624 3.99671
1758 1 16.8117 16.3699 3.15982
142 1 5.36008 1.80615 3.55197
452 1 5.0691 16.6264 3.6168
369 1 6.3261 -11.714 3.91019
1021 1 7.35722 16.1784 3.68231
430 1 -5.29403 15.2245 3.81424
974 1 8.32412 16.6668 3.34414
1849 1 10.2768 2.58955 4.38003
1447 1 10.0855 2.29625 16.9373
59 1 9.15517 2.37096 -9.76797
263 1 10.9692 1.92022 3.87094
273 1 11.7307 2.83032 3.72908
1354 1 12.8405 2.22873 3.98046
1074 1 0.450575 3.8108 -9.77054
526 1 1.88218 3.65193 4.22905
852 1 1.81141 3.76269 3.11071
666 1 2.7667 3.62792 -10.0655
2007 1 4.15128 3.48938 3.52117
45 1 4.14934 4.52096 -10.2209
1414 1 3.52283 17.8009 4.11613
1155 1 6.03076 3.16941 3.28621
1625 1 5.0716 3.94096 3.04063
204 1 -7.79565 18.2258 3.77059
1214 1 18.6644 18.0642 4.39843
1407 1 19.9665 3.05483 17.9849
429 1 6.86956 4.15764 4.30547
860 1 8.70092 3.80586 3.72429
1983 1 7.64324 3.91351 3.09326
1434 1 7.82448 3.54036 4.10795
988 1 9.58104 17.1971 3.30981
478 1 9.33653 16.9789 4.33142
44 1 -4.25879 4.41003 -9.59937
1077 1 10.014 4.52351 3.26567
101 1 10.4572 4.0043 -9.42005
1847 1 10.6799 3.13285 17.1717
213 1 11.3106 4.04192 -10.1887
1925 1 -0.368061 16.812 3.68868
75 1 -0.816053 4.05826 3.32634
355 1 -0.742188 3.93556 4.44645
1508 1 1.13461 4.64283 3.49036
919 1 0.110147 4.66721 4.55513
309 1 14.3619 5.73552 3.56604
1969 1 16.3199 5.70128 17.6023
477 1 16.0838 18.3501 17.5657
322 1 3.36294 5.14903 3.29921
1337 1 17.8719 5.23391 4.23832
896 1 4.95318 5.2372 3.32944
1521 1 6.4557 5.60444 3.63002
1392 1 7.10163 4.78925 17.1284
1771 1 7.98117 18.3075 3.8416
1557 1 7.81799 -8.10713 3.47432
1661 1 8.40809 5.45009 18.0344
484 1 -4.72855 5.08351 3.35902
545 1 -4.40923 6.00884 3.95265
1783 1 10.3482 5.63611 17.0576
158 1 10.1497 5.67774 4.47465
1090 1 -2.75968 4.8789 3.98034
311 1 11.787 5.84177 3.5063
618 1 11.9259 4.65158 4.24721
1268 1 13.5958 4.85107 3.42981
182 1 12.6211 5.32459 -9.64475
1509 1 -0.400075 5.91797 3.21553
1198 1 0.763272 20.5459 4.10018
571 1 13.8737 6.88131 3.24253
177 1 1.66483 6.17362 4.17433
2014 1 15.4169 6.25103 16.8289
392 1 1.79202 7.28321 3.78404
1772 1 2.81932 6.67655 3.49107
152 1 3.73757 6.56464 4.26515
939 1 3.8011 19.8892 3.07504
1326 1 3.43382 21.2098 3.79929
31 1 5.529 6.22153 3.12547
1550 1 4.58605 6.79617 3.56345
791 1 4.96256 6.19131 17.9317
833 1 5.59946 7.29361 3.71929
765 1 5.95915 20.0242 4.27893
1903 1 6.56847 6.76357 17.0865
1722 1 20.686 6.21732 4.23906
1938 1 6.45038 7.53311 18.1788
197 1 -6.26373 7.15164 -9.55975
1824 1 8.91547 7.025 17.078
1793 1 7.66886 6.60585 16.9367
1165 1 8.25904 6.48055 4.0917
1347 1 -4.83292 7.50248 4.42981
924 1 10.118 7.53121 3.20798
920 1 10.2669 6.67221 3.89118
1451 1 10.2199 7.51562 4.54974
1125 1 -2.52829 7.04502 17.0755
1964 1 11.4348 6.48494 18.0032
1981 1 13.4844 6.54593 17.8753
1497 1 12.4133 20.3597 3.89811
594 1 13.0209 7.50235 3.93572
810 1 0.679738 7.82465 4.30874
1437 1 13.7391 8.36546 3.73721
2 1 1.21572 8.6932 3.69921
61 1 2.46056 8.0996 3.75752
1005 1 -10.6713 8.88958 3.85555
1263 1 1.71857 8.17945 4.48633
485 1 3.73768 8.56887 4.49715
1211 1 16.9692 8.23285 16.7514
2044 1 4.43894 21.5576 3.47798
937 1 4.85446 8.68487 3.94439
275 1 5.68146 8.2968 4.33883
367 1 7.45104 8.59758 3.52582
1377 1 -7.25288 8.01661 17.3575
169 1 -5.38937 9.06267 3.98387
1011 1 8.25298 21.5184 3.75843
1637 1 9.28302 8.14144 3.57092
1878 1 9.85768 8.52532 18.1905
989 1 10.6186 22.7887 3.92677
183 1 10.891 -5.18727 3.04329
822 1 -2.38425 8.01669 3.7986
1103 1 11.9942 7.81244 4.53618
1039 1 11.7156 -4.74079 16.9809
438 1 12.3926 7.86456 3.05336
1973 1 12.6567 8.56197 17.7082
1895 1 1.42117 -3.30017 3.04041
1469 1 14.875 9.99437 3.99437
425 1 0.28804 10.3932 -10.3104
233 1 0.395351 9.38087 -9.49355
1618 1 2.96998 10.0389 17.2835
1279 1 2.00587 23.2799 3.30812
839 1 2.20324 -3.22031 4.2279
521 1 1.87692 -4.40321 4.35142
748 1 -9.71322 23.167 3.72534
1300 1 5.38938 -4.29602 4.52432
82 1 5.86041 -3.43423 3.15504
933 1 5.44477 9.31953 3.39431
1346 1 4.80133 -3.4135 3.86119
469 1 6.81723 10.6136 3.35629
135 1 -6.35575 9.44243 17.8747
535 1 7.41855 9.84354 3.32043
1935 1 6.46037 9.39458 17.0546
729 1 6.3301 9.81047 17.9004
1116 1 7.1359 -3.25263 4.38616
800 1 8.16622 -3.21732 3.15902
1079 1 8.86304 -3.64661 3.81
122 1 8.0981 10.5709 4.2095
1985 1 -3.74114 10.2314 17.3516
1937 1 9.5676 9.12368 17.4304
955 1 -2.39481 10.0871 3.93297
1491 1 11.8294 9.35565 18.0001
1614 1 12.401 9.91411 16.9983
639 1 12.5778 10.027 4.50089
1743 1 -0.454633 9.27916 3.48172
424 1 -0.0388897 10.3101 4.44014
1750 1 14.5768 12.1483 4.44166
1277 1 15.1896 11.2773 17.644
834 1 0.141658 -1.76019 3.63885
549 1 -10.9138 -2.51891 3.71734
1159 1 3.72381 -1.99456 3.51511
705 1 -9.58794 10.6532 3.25511
533 1 3.74264 -3.02824 4.12011
845 1 4.82898 11.4135 3.70759
1296 1 5.95535 -2.45746 17.5212
1749 1 6.97292 11.3995 3.97288
1114 1 8.02046 -2.11242 3.69595
826 1 10.206 -2.04498 3.21667
917 1 10.3492 -1.52502 4.22997
1042 1 -4.1569 -2.55811 4.30078
1892 1 -3.18167 10.6674 18.1817
1733 1 -2.38882 11.3828 3.81166
771 1 12.1026 -2.89646 3.78786
1664 1 13.1935 11.122 3.59994
1554 1 12.346 -1.94528 3.71973
1946 1 28.4707 13.1633 4.55309
316 1 14.1099 -0.764114 -10.1316
387 1 2.95137 -0.426309 3.96545
569 1 15.4031 -1.09898 3.80434
1225 1 2.87901 12.1863 4.14379
1426 1 18.0545 13.6144 17.5141
1131 1 3.86865 -1.08958 4.32706
217 1 17.194 12.7269 3.19697
1869 1 5.91217 13.4237 17.3819
1216 1 5.02076 -1.18269 3.80866
966 1 6.69962 13.4139 4.31168
509 1 6.28004 12.3964 3.76693
1478 1 6.94743 13.3059 16.8798
1335 1 7.1862 -1.28843 4.01506
361 1 7.91212 -0.628576 3.67642
711 1 8.88407 12.169 3.76285
650 1 -3.73966 13.2046 3.32277
863 1 23.1497 -0.764643 4.11486
1338 1 10.9298 -0.194563 3.05181
726 1 10.7889 13.1442 4.17464
947 1 10.9815 12.3327 3.28985
1945 1 11.6576 -1.15107 4.2192
558 1 11.9827 13.3832 3.69562
79 1 12.978 -0.97901 3.6192
1665 1 1.1662 0.551072 4.76231
1292 1 13.7804 1.22999 18.6578
1397 1 14.6568 0.868734 19.5726
271 1 0.258647 0.173406 -8.1051
67 1 2.20624 14.4916 4.79732
936 1 2.63059 13.7354 5.47995
276 1 2.10472 1.13159 -7.85189
1133 1 3.26383 0.840162 4.56054
62 1 18.0661 0.630783 4.80279
453 1 -9.99282 14.2552 5.578
1708 1 5.55288 13.8663 5.5421
1328 1 5.00268 14.9951 5.60537
222 1 7.06818 14.6009 4.83307
1904 1 6.2226 14.8162 19.161
1894 1 -7.09883 0.0359663 19.1278
1515 1 7.59861 15.0178 5.81749
1341 1 21.3763 13.8969 5.9956
1178 1 8.35913 0.595169 5.08495
1218 1 -4.71823 14.7586 5.91404
547 1 -3.71017 0.925952 4.82381
267 1 -3.23008 1.09757 5.63317
1124 1 -4.0077 0.25811 19.2235
542 1 11.4109 1.31586 4.87434
206 1 -2.07404 14.2331 5.55413
1659 1 12.1397 1.42074 5.9078
692 1 12.8308 0.769929 5.48473
30 1 14.3763 -10.8411 -7.95263
1606 1 2.96009 2.37203 5.17378
903 1 1.74439 1.70512 18.7205
1022 1 15.8172 2.32443 5.84706
970 1 17.4284 1.76109 4.91578
1822 1 17.8967 2.59623 19.0268
1841 1 3.84807 1.70471 6.07279
815 1 5.37333 1.84264 4.75624
1485 1 5.84113 2.24215 5.84731
1280 1 6.66534 15.5769 4.8825
1653 1 6.89407 2.56636 5.81653
178 1 8.47501 1.92335 -7.83831
1522 1 7.86775 15.3597 4.77319
1237 1 8.51957 16.4592 4.60003
862 1 10.5479 1.97822 5.17915
891 1 23.2008 15.5705 4.85699
1213 1 9.91706 16.4525 5.30407
1781 1 10.8166 16.3775 5.94242
600 1 12.0766 2.85598 4.73526
1166 1 12.5678 15.4683 4.80906
270 1 13.1895 2.96225 4.69866
1480 1 -0.324789 15.3964 19.4281
710 1 -1.14251 16.1348 6.01233
1936 1 0.481838 3.25999 18.4578
370 1 14.6557 3.84108 5.43966
1026 1 -11.8493 3.04325 5.10601
1729 1 1.79578 17.218 19.7418
945 1 16.3989 16.7862 6.0247
2020 1 2.88797 17.2851 18.6244
1010 1 2.19083 4.24636 5.35381
1223 1 4.5446 3.4372 4.67169
171 1 3.81059 17.1827 5.67099
1736 1 3.12452 4.37069 5.53955
1449 1 5.53046 3.07791 5.15463
1130 1 4.91369 3.6485 5.82987
1563 1 19.821 -9.34663 5.09894
875 1 6.66148 3.53959 5.55032
587 1 7.45539 3.12626 5.05326
983 1 20.5823 4.545 -7.93844
551 1 7.70484 4.00728 5.82096
36 1 7.65537 4.5389 4.87083
1647 1 8.43265 3.70597 5.15147
1588 1 -3.64612 -9.70365 5.18507
610 1 -4.16926 4.41982 6.05756
1041 1 -1.99702 -9.93668 4.57722
747 1 -2.78775 3.28297 5.01433
1432 1 11.2703 17.9003 5.44049
395 1 13.336 4.18599 5.45342
37 1 -1.38261 3.73254 -8.28339
1350 1 -14.0857 3.13819 19.5227
1427 1 0.865098 5.51413 4.84136
368 1 1.31255 4.56012 4.57672
39 1 0.855056 5.88413 5.9171
180 1 0.608647 4.8899 -8.02901
1716 1 15.4352 5.23116 5.61822
1363 1 -11.7435 5.32797 4.63904
68 1 2.76878 5.34816 5.41618
841 1 -10.6546 4.83886 4.6485
1240 1 3.72193 5.7735 5.09036
662 1 4.19836 18.2478 5.37653
357 1 3.61643 5.21324 6.05924
331 1 5.69942 5.19197 -9.05924
1049 1 4.78919 5.48451 4.99038
647 1 -8.44152 4.68636 5.40773
1872 1 6.78067 5.19568 4.58697
796 1 7.49286 -8.25696 5.62487
77 1 6.16574 5.39257 -7.98221
279 1 8.7625 -9.10961 4.8163
648 1 8.42769 4.73698 5.86492
1294 1 -5.08252 5.72991 6.01856
892 1 9.62651 4.99302 18.8831
633 1 10.5927 19.1289 5.5478
1788 1 11.2877 5.49556 18.4455
1064 1 -1.99987 5.16952 5.81982
685 1 -1.0185 4.96712 5.25901
617 1 -0.144739 5.62469 4.83673
585 1 12.3547 6.02139 18.5388
1063 1 13.3222 5.21832 5.93065
287 1 14.1611 6.5341 5.21097
528 1 1.49865 7.23524 4.7445
189 1 13.8214 -6.12038 -8.52043
1760 1 14.7247 7.13664 19.7286
333 1 15.263 6.32326 5.36936
71 1 2.54229 6.31581 4.82249
550 1 2.44385 -7.04629 5.88388
248 1 16.4183 21.1303 4.70411
51 1 4.06037 7.57317 4.80987
1821 1 3.39956 -6.82051 18.9015
1344 1 18.0136 -7.15986 5.60102
884 1 5.13213 7.19544 -9.00124
1303 1 18.9892 6.46985 5.31368
1755 1 5.28176 21.2052 5.64368
825 1 6.43121 6.49895 5.16291
756 1 7.67979 19.9378 5.03629
340 1 8.73527 6.56592 5.29672
1288 1 9.64711 6.45467 4.94718
911 1 10.6912 6.38558 18.6669
153 1 11.4689 6.12006 -8.10936
167 1 -2.39383 7.2166 5.26872
1844 1 12.8765 -6.64508 18.6044
1148 1 13.2963 19.9025 5.80702
1929 1 -1.38478 6.64982 5.83058
308 1 13.885 8.62626 4.96305
364 1 1.09734 8.02295 -8.41946
1982 1 14.7507 8.96842 19.321
1709 1 14.012 8.15014 6.0475
1441 1 2.08176 7.86856 -8.16274
128 1 16.5121 8.55625 4.84529
889 1 2.10894 8.97741 5.424
1656 1 3.74442 -5.6144 5.73941
993 1 3.44155 9.01603 5.53714
1786 1 18.3051 22.0592 18.7491
811 1 5.62038 -4.84112 5.44361
285 1 20.8675 8.31108 -9.11505
735 1 6.39479 8.96754 4.79306
900 1 6.42882 -6.04401 5.65119
1571 1 7.40701 -6.06411 18.8628
515 1 -6.97425 -5.09808 5.88157
1702 1 -5.46113 8.2768 18.4937
244 1 -4.58289 9.07982 5.00357
55 1 8.96237 7.88813 5.46264
76 1 7.93162 8.17072 6.02375
1682 1 10.2225 9.05134 19.0302
238 1 9.9909 8.02188 5.66306
530 1 11.0923 8.31108 4.98612
1801 1 -1.60062 7.73686 5.64524
938 1 12.3147 8.97285 5.14751
704 1 13.0209 8.10636 4.78702
1558 1 12.9899 -5.37552 5.81777
1360 1 0.823887 -3.88413 5.17045
1660 1 1.36784 10.2436 6.03806
946 1 1.97204 9.97266 5.12632
1200 1 4.23644 9.47639 4.81561
1543 1 3.09894 -3.91982 4.76077
234 1 3.85767 9.96407 -8.02348
1766 1 4.93263 10.0261 5.30932
1971 1 5.94594 10.2702 5.9955
74 1 -6.97377 9.9202 5.35469
2021 1 -5.43209 9.54057 18.5617
671 1 21.4571 9.16285 5.73855
1870 1 7.73634 -3.25141 5.17966
615 1 9.01042 10.5155 4.94222
125 1 9.94199 -3.85498 -9.03164
876 1 9.46242 23.6012 5.88283
1753 1 10.9289 9.61026 5.01616
296 1 -2.20962 -3.06996 4.80889
1464 1 -1.70682 9.98496 19.0207
1305 1 10.9116 10.3073 5.91928
476 1 13.1495 9.2517 4.67281
1339 1 13.528 9.33143 5.68017
851 1 13.1673 10.2763 5.4707
1304 1 0.487915 -2.93789 5.49481
493 1 0.576455 11.8001 5.54306
539 1 15.131 -2.39483 5.81462
953 1 1.45033 10.7995 -8.81283
1420 1 14.0275 -2.42666 4.61981
1006 1 2.72205 24.4292 5.23462
1273 1 2.28227 11.5239 4.61446
2025 1 2.8455 11.6743 5.98112
1342 1 18.1289 -1.87668 18.4418
6 1 3.9963 -2.84735 5.11925
1761 1 3.45403 11.776 18.6589
769 1 4.16959 -15.7487 5.76449
468 1 5.4534 12.1362 -8.97372
697 1 18.6651 10.9199 4.65822
779 1 4.66626 -2.88752 -7.64666
908 1 5.49285 11.4917 5.72166
1167 1 -7.53673 -2.90796 4.78642
1950 1 20.0683 -1.97878 18.4191
1863 1 6.97774 -2.40851 19.1821
1519 1 7.6481 11.6431 18.4165
998 1 -4.90096 11.5321 5.08495
2017 1 -5.75847 12.0012 19.2716
250 1 8.79391 10.9057 -7.63499
1085 1 9.95454 -2.88171 5.36587
315 1 9.746 11.9238 5.11897
1567 1 22.9666 -1.93071 5.99185
120 1 11.8321 11.6933 4.79696
1493 1 10.9178 11.3854 5.37585
964 1 -0.694555 11.1449 4.57801
1082 1 12.9187 -1.54538 4.61987
1913 1 12.1789 11.1339 19.3035
1091 1 -0.482295 11.574 5.65399
18 1 0.0436574 -0.79029 -8.57636
1587 1 0.545252 -0.761839 5.9574
1995 1 1.43123 12.5514 5.99618
144 1 1.9877 -1.21969 5.02772
895 1 16.6319 -0.942271 5.14927
236 1 1.54318 13.4671 -8.19404
1800 1 2.24764 -13.9518 18.283
1351 1 3.53222 -0.212351 4.8434
92 1 17.9593 -0.305411 -8.16702
1764 1 -9.94404 12.4713 5.95389
694 1 4.95485 13.2604 4.62015
264 1 5.21313 -1.14418 5.6317
403 1 5.993 13.0644 4.88414
961 1 -6.65929 12.7099 5.14997
1007 1 7.55263 -0.0739198 5.0018
638 1 21.9586 -1.2635 4.58845
98 1 -5.01785 -0.332374 5.83216
149 1 -4.88693 13.439 -9.00384
239 1 10.6131 13.607 5.09329
349 1 23.1623 -0.733866 5.22235
1627 1 10.1979 -0.567959 6.0683
338 1 11.9292 -0.541219 5.07513
390 1 -2.84996 12.4203 5.1539
159 1 11.7685 12.3153 5.78874
929 1 -2.42006 -0.408834 5.78809
501 1 -0.730235 12.5466 -7.85433
1056 1 12.8984 -0.199638 18.5698
654 1 0.907073 27.5963 -7.05088
1448 1 13.94 0.449947 7.45873
1615 1 0.740159 1.41006 20.7082
1561 1 1.81892 0.914944 20.4674
266 1 2.95343 1.43309 6.56675
1977 1 3.65435 14.7002 20.9168
1695 1 16.7824 0.332512 20.258
187 1 4.12078 0.110514 -6.69752
670 1 18.3072 0.365289 -7.5019
1798 1 4.85996 0.514737 7.54885
636 1 18.9874 15.0754 6.7683
1278 1 5.3752 13.7838 6.80831
1353 1 -7.65272 -12.8269 7.27437
819 1 6.62941 14.2524 6.48122
687 1 7.42768 1.08008 6.9281
2000 1 8.47733 14.1826 6.76902
1763 1 -3.66187 14.7133 6.71716
544 1 9.30905 0.596398 -6.18204
1208 1 24.1937 0.353394 7.41891
949 1 -2.80772 14.133 6.38056
1219 1 11.5063 1.08982 7.04695
1379 1 -1.04365 1.07997 6.9257
951 1 -0.220572 14.5771 6.34559
1184 1 13.472 1.51587 7.51639
1777 1 12.4455 13.7094 19.7907
1204 1 12.7671 0.028828 7.19201
1144 1 1.20759 1.859 6.22114
1621 1 0.13679 -11.3258 6.4706
363 1 1.10872 2.96362 6.814
1445 1 0.00866486 16.199 7.46168
141 1 2.10612 15.5849 7.00301
278 1 2.5977 -10.9831 -6.69691
717 1 3.62611 15.8836 21.1434
81 1 3.77436 2.68781 6.48385
1674 1 4.75561 2.95222 6.61855
235 1 5.9268 16.1232 -6.6664
1266 1 6.5153 1.59192 6.43282
12 1 7.56286 15.7916 6.63946
1989 1 -6.88004 2.70897 7.43023
1310 1 8.95794 2.83906 6.1367
1691 1 8.32868 2.30961 7.31258
1835 1 -4.61091 1.70556 6.75184
576 1 9.85239 2.0827 6.17936