ITEM: TIMESTEP
215000
ITEM: NUMBER OF ATOMS
2048
ITEM: BOX BOUNDS pp pp pp
0.0000000000000000e+00 1.3679807573413575e+01
0.0000000000000000e+00 1.3679807573413575e+01
0.0000000000000000e+00 1.3679807573413575e+01
ITEM: ATOMS id type xu yu zu
1824 1 28.5683 1.62594 15.599
464 1 -0.587055 12.5421 13.8035
1239 1 27.27 1.94141 13.9274
1733 1 0.363914 28.1134 2.16905
1473 1 27.9377 27.3892 13.6104
1634 1 4.67447 14.3573 28.2588
258 1 5.35462 12.3451 -13.3568
587 1 4.1619 -0.246764 14.4276
596 1 -8.72843 15.0317 -0.181044
1741 1 6.34642 -0.227199 28.6293
1081 1 20.8298 28.6013 -13.6981
1635 1 7.35885 -0.738842 13.047
1558 1 22.8817 0.82879 13.7823
112 1 -3.68669 14.507 14.5732
1925 1 21.9115 27.9261 0.631993
1524 1 10.0591 13.6242 -13.4581
1464 1 -4.51627 13.5696 26.7993
55 1 25.2399 14.2933 -11.6196
1479 1 -14.5447 26.5301 15.7232
407 1 12.2804 14.41 14.6254
937 1 11.582 13.5548 1.09105
627 1 12.3163 13.446 0.170876
1766 1 13.2949 14.0272 15.1772
446 1 13.4696 -0.356348 -12.9586
1890 1 1.82564 -12.7429 2.22917
1531 1 -12.5465 3.05112 0.236329
1495 1 14.853 15.7872 -12.9643
1844 1 15.4691 -12.2699 13.3387
909 1 2.23847 15.6602 -13.0919
2036 1 -11.2771 16.8042 27.7877
65 1 5.04446 14.4557 15.5589
1550 1 31.4667 2.46992 2.53475
1382 1 5.26117 1.90251 -12.6621
1431 1 6.58077 16.298 15.414
538 1 5.72012 30.4637 2.33968
1801 1 5.84321 15.4711 0.143597
21 1 -6.39039 -12.0567 -11.7788
1687 1 -5.82856 1.56165 41.9697
432 1 23.2275 17.0216 1.29176
427 1 -4.36025 -11.0358 16.7086
393 1 9.82433 2.28218 1.24345
682 1 -4.19737 1.68427 -0.449224
1732 1 -2.90504 43.0943 1.90531
1866 1 10.2716 -25.6594 27.6096
1785 1 -1.12927 16.6428 15.8407
374 1 10.8315 2.63634 0.85188
1597 1 11.9621 2.03999 1.86642
380 1 13.2527 -25.0003 1.52305
1679 1 12.7091 15.4083 28.2888
565 1 0.454359 17.4465 0.970721
855 1 2.06032 4.63723 14.9311
843 1 58.5268 5.69973 13.856
1720 1 16.8376 17.8463 1.35658
1525 1 17.4969 3.40576 15.1155
1637 1 5.56872 2.92285 14.9835
1002 1 31.643 17.606 13.4858
1764 1 -7.37514 16.3058 -26.8293
90 1 4.71649 -9.94756 -12.8076
182 1 19.7096 -23.6852 -26.821
1447 1 19.3564 18.1461 27.1845
1901 1 5.51072 3.98152 29.0104
947 1 7.66241 2.51903 15.127
1482 1 9.02603 2.43007 2.0567
766 1 -4.25827 4.8969 0.0213988
1657 1 21.3368 3.67372 29.1386
1664 1 24.4532 17.3927 1.44623
1776 1 24.4566 17.555 30.119
93 1 8.361 18.471 -13.1474
337 1 -3.8045 17.7476 -14.0634
1337 1 12.8956 3.1386 0.712982
444 1 -15.5169 -11.7818 14.1557
834 1 0.558297 -9.77076 13.5905
1797 1 14.4184 -8.6359 0.449027
1273 1 1.41442 -9.17719 -0.126159
1167 1 -12.2028 5.59522 14.9638
515 1 1.5571 3.75511 14.515
727 1 3.6626 -7.22914 2.16741
74 1 -8.63519 20.0678 13.5872
1129 1 17.5667 -6.7706 -13.3206
1761 1 3.49562 4.73901 2.93247
200 1 -7.75602 18.6706 0.655494
1352 1 -8.45159 19.3739 0.884258
341 1 -6.09186 5.37586 -11.5865
719 1 6.68708 4.69181 1.47696
1412 1 8.93841 19.4476 28.1061
1321 1 -4.91255 19.5885 13.4718
1700 1 9.94319 -20.8428 27.6656
42 1 -17.3829 5.54088 0.5614
1267 1 11.5873 20.3603 -13.5543
373 1 10.1206 6.97475 2.28153
71 1 -2.51624 18.5517 0.750105
845 1 -0.154043 5.56145 -13.2833
1576 1 -2.04415 5.55744 13.7526
897 1 -1.66554 16.4305 1.17246
1402 1 25.5767 -9.21878 15.1032
1987 1 -14.4957 4.01786 14.823
1013 1 26.7383 32.2597 1.80756
1147 1 -13.6493 -6.44633 15.0807
1420 1 28.0271 -21.219 14.6064
577 1 13.1447 6.08537 1.14298
53 1 29.0657 6.41831 14.3537
769 1 1.22164 -20.6325 1.56255
1888 1 3.30918 7.32503 14.8163
1529 1 -9.83314 7.94703 0.362835
1178 1 15.9783 7.11266 -0.341412
1907 1 16.1484 35.159 -13.2371
1869 1 5.57307 21.1004 15.5319
236 1 6.86592 5.70502 1.24778
321 1 19.4975 -5.95626 -10.6863
1721 1 20.5668 6.83054 14.5224
1803 1 7.75795 -7.34352 15.1198
460 1 10.7596 -7.14708 28.1807
1937 1 9.73375 21.2915 27.2696
1323 1 9.09532 -5.70559 0.573216
1220 1 10.8182 33.6942 13.1691
774 1 24.8506 -6.38508 3.10601
992 1 9.23857 7.61866 15.9138
666 1 -2.5741 21.2901 14.7567
725 1 -14.7672 19.9629 13.9245
122 1 11.9242 20.5679 -12.5813
791 1 13.4225 19.8007 26.5921
1543 1 -13.7056 -5.83751 0.292589
1940 1 14.5713 7.14817 14.044
334 1 1.69525 7.89911 1.05456
1144 1 0.917041 -4.33274 2.58654
264 1 -0.101288 23.3786 1.51869
1820 1 1.10046 -4.66973 13.2877
705 1 3.78492 8.24559 15.1155
1221 1 19.2331 7.79579 14.549
1068 1 3.99661 -4.62177 14.2496
1967 1 32.1751 7.35165 0.133955
1794 1 18.2979 -6.23747 14.9386
1302 1 21.2813 8.4031 0.946302
1942 1 9.84453 20.9642 1.16476
1665 1 7.67744 7.2442 0.377869
953 1 8.34367 -5.72149 1.74935
790 1 -4.14739 8.37381 -0.729748
925 1 23.3265 -18.9363 -12.3323
1017 1 10.761 35.5533 -11.566
77 1 10.7245 -4.41628 0.0700756
1667 1 -2.66954 23.2136 14.6501
381 1 12.7742 7.68841 2.76493
568 1 25.5109 -5.97851 0.296978
652 1 0.259538 8.15511 -12.2549
476 1 -2.50015 6.6276 -11.7699
826 1 -0.742974 6.8352 2.03609
898 1 12.8999 8.49569 15.3992
1599 1 42.6576 10.0438 29.104
1211 1 28.1554 -3.47931 28.2959
671 1 29.9202 9.02545 14.1163
418 1 14.609 9.31612 15.1616
695 1 15.1388 23.3704 0.334704
217 1 0.933407 21.83 0.347599
1810 1 1.97474 9.07138 14.956
1799 1 4.07147 -17.0616 2.46538
1016 1 16.9128 9.47314 13.3528
1511 1 20.2972 35.2856 -13.3281
1846 1 -6.69611 22.8749 14.0757
165 1 -8.91519 9.46924 -13.7667
338 1 6.1161 9.01375 13.5025
818 1 22.3014 -5.86903 -0.366277
1562 1 21.5321 -17.8306 28.1779
1549 1 7.19576 -17.0181 27.3833
259 1 -5.11777 36.2775 -13.0261
1696 1 23.2779 9.46834 1.29903
1513 1 10.1776 10.0174 27.9156
1977 1 9.00299 9.87567 27.4354
339 1 11.9944 35.5792 12.993
1588 1 -1.99734 -17.9614 1.70169
1948 1 37.7129 11.0724 27.5915
528 1 13.4872 23.8086 14.2519
1393 1 -14.6077 9.44066 14.6294
1248 1 13.4016 24.3976 15.1774
572 1 -15.8021 8.56678 1.11799
716 1 0.684841 10.9277 0.203989
1305 1 -12.5757 -1.44579 0.612508
1818 1 2.02819 12.4301 1.68749
1762 1 3.26848 9.3268 -12.4997
1347 1 -11.8787 11.3053 14.242
245 1 2.28638 23.8703 0.719888
787 1 3.72249 -15.4987 -0.854651
1772 1 -7.88605 -2.25642 0.960908
778 1 4.26459 -15.8396 13.5988
244 1 -23.5633 10.1756 0.289539
1254 1 5.9653 23.8161 13.7039
33 1 -6.52927 -1.89779 -11.5688
935 1 7.20379 -2.77229 1.03084
1083 1 19.173 -2.59827 13.7207
402 1 20.1532 11.4574 13.8923
441 1 -5.11465 12.161 -12.6745
601 1 8.62554 10.0049 1.35638
1367 1 9.2102 24.6983 14.3115
87 1 -4.46893 11.6672 15.2289
1166 1 9.71058 25.7124 0.596013
2011 1 9.58487 26.2235 15.6261
1949 1 10.8839 10.5218 1.28615
866 1 -2.78445 -1.73698 0.658292
316 1 13.7552 -1.39134 -25.6073
1099 1 12.3854 -16.7092 1.09956
1029 1 -0.0282005 -2.10655 -0.402857
125 1 0.914026 -0.26728 -12.8513
1223 1 3.09151 -1.9241 0.522161
1727 1 16.2311 -0.709715 12.9835
16 1 15.1117 0.889782 28.6209
1690 1 5.08275 -0.278821 1.68824
1611 1 2.95442 -1.26386 15.0384
749 1 3.31318 -2.80986 14.5817
980 1 5.35529 13.2847 -13.0109
1209 1 4.34041 -1.36681 0.608044
508 1 6.62969 12.7419 13.8539
1415 1 3.48235 12.7231 0.214598
1237 1 8.11669 27.8906 13.2783
600 1 7.27729 11.8197 -0.519626
688 1 7.83858 -0.429111 1.37479
2027 1 7.06423 -1.18433 -12.6629
434 1 8.50748 -0.803295 12.3138
58 1 21.3125 1.04965 2.73105
1930 1 -4.75671 -0.394335 0.361335
322 1 -2.65533 -14.1847 0.136169
692 1 -2.24252 -2.19387 1.67676
98 1 -2.96272 0.060992 1.63792
759 1 0.0296685 11.9986 14.4107
1409 1 -16.3618 -1.5678 29.806
1478 1 14.6839 12.5672 28.9075
331 1 14.0969 13.3554 -11.6305
1389 1 -9.76702 14.4207 -12.1217
514 1 1.25793 0.0292688 -10.9212
8 1 -11.0568 0.850757 14.8297
607 1 30.026 13.2745 1.87257
1498 1 4.24124 13.2345 3.01466
431 1 3.57821 -12.456 0.736978
1817 1 17.459 -0.158416 15.6833
138 1 4.41242 1.49288 -11.4558
1735 1 -10.147 2.00882 1.7784
570 1 32.9142 15.3247 3.07741
809 1 -21.3817 -13.4084 2.07994
750 1 8.16541 14.6358 1.83823
1512 1 7.22278 0.582145 1.35159
1508 1 -6.09042 15.145 3.74215
1283 1 22.8928 1.12187 15.6049
840 1 9.83089 15.6116 2.33407
922 1 8.73619 -12.5683 2.99074
1790 1 11.1176 -0.535804 2.94031
595 1 36.9764 13.7106 15.5158
949 1 -2.96568 0.426564 2.86805
1446 1 -16.361 -13.8901 3.95225
320 1 -1.16641 0.273567 2.14741
469 1 0.336869 28.9958 15.0291
946 1 -12.0395 16.3058 1.38789
457 1 -12.7497 29.8639 2.39259
359 1 15.0408 3.56425 -9.69736
1494 1 16.0501 15.3451 15.3647
718 1 2.09647 17.2988 15.4803
1399 1 16.6821 16.017 16.2197
126 1 17.0432 3.69043 16.1704
399 1 -22.0182 15.7637 2.11528
1480 1 -7.75691 28.7113 1.83877
1390 1 33.6373 15.7367 2.55068
1301 1 4.54551 2.56179 1.55179
1456 1 6.99159 16.9859 16.2457
9 1 22.5052 17.4518 2.07534
1604 1 9.15859 29.8107 14.1519
680 1 -5.46774 -10.7921 16.3394
859 1 24.4891 -12.172 16.4938
811 1 22.5814 -25.9012 0.921393
1929 1 -1.6792 28.0968 16.6241
1256 1 -15.9746 2.8899 2.19169
1837 1 -1.28204 -10.4577 30.5288
814 1 -0.767816 -12.3836 -25.3132
998 1 -14.682 15.8286 2.89976
1459 1 0.0104069 2.60246 30.2472
467 1 1.03461 4.55645 -12.2772
1552 1 -12.1922 -9.38084 2.43094
827 1 1.7613 5.36373 16.0049
1055 1 3.341 3.62294 -13.151
2041 1 16.1639 4.65729 15.9554
1638 1 18.6077 30.4064 30.3595
420 1 4.17822 18.0503 -12.1408
872 1 4.22601 -9.75992 3.40063
645 1 16.9271 -10.0378 -10.1467
1982 1 18.2976 5.26144 1.48
1458 1 6.23148 17.7281 16.2599
776 1 4.74421 17.1054 15.7829
1649 1 20.2527 17.3465 28.8134
1492 1 36.1334 -20.5834 16.5375
473 1 7.98389 4.59157 -24.4313
978 1 8.63349 19.219 2.83752
709 1 -3.62249 3.00846 -11.3057
732 1 9.97141 17.7212 15.6787
1677 1 -4.01895 18.2947 3.86602
1444 1 -2.73182 18.5572 15.623
2023 1 -3.01365 5.894 -11.3132
1126 1 -2.9759 18.0444 17.4513
113 1 13.3605 17.2389 1.93932
1989 1 -30.854 -8.59346 2.73545
1947 1 13.3265 -23.7646 2.97733
646 1 1.05793 14.575 16.8617
1404 1 0.888488 -22.9919 17.1384
1065 1 0.383085 17.9188 2.39774
1778 1 14.1328 32.9234 1.83539
981 1 26.7807 19.5837 -11.373
2028 1 1.08008 17.1715 15.5912
1202 1 14.826 6.09955 16.2003
69 1 2.30901 -8.01425 -10.4173
1554 1 17.5971 -22.8678 0.499344
1462 1 -11.3569 6.19769 -11.8891
443 1 2.87506 34.0093 -10.9166
1783 1 17.3025 -8.38289 28.5999
858 1 -10.6681 21.3383 2.54331
1718 1 16.8871 -7.05918 18.9643
743 1 -22.9787 33.6273 1.02057
1632 1 33.117 -22.083 1.80752
1497 1 19.2343 6.77476 0.815152
1451 1 6.90579 -7.22017 2.25301
1823 1 8.93138 34.272 0.24265
1433 1 23.3719 5.15334 15.5111
1503 1 22.3556 19.2292 15.4254
60 1 22.8693 4.713 14.7294
1198 1 -3.10551 19.3483 1.39119
1071 1 36.3324 -6.99298 17.5602
414 1 10.5027 19.7121 -10.2349
1006 1 -29.2095 31.4393 30.3839
894 1 10.3906 5.5191 4.41921
1892 1 12.1206 4.99018 15.9372
309 1 -14.8811 -9.60928 15.8836
762 1 13.8873 32.4441 -10.7518
564 1 -14.4916 6.83307 3.21615
1881 1 13.8139 21.5392 16.2653
1484 1 2.32535 7.24861 1.82788
1189 1 -13.2699 -7.05079 15.8702
203 1 -24.8762 19.2542 14.6175
975 1 0.182298 6.83402 30.6215
1100 1 4.21857 7.62551 15.9672
943 1 -10.6843 -8.07818 -11.3163
39 1 16.8436 6.30801 -12.4763
936 1 5.12321 19.9422 1.86674
632 1 32.1865 7.95644 -10.5991
1689 1 32.099 -6.80693 16.393
1066 1 20.1967 -19.7046 1.65165
1641 1 6.81877 7.41272 16.8856
212 1 6.0861 -7.1999 -12.0308
1225 1 23.3158 6.27702 1.48914
1650 1 8.86657 6.9098 15.1254
326 1 -18.7389 7.65238 3.26943
913 1 9.5377 -7.61797 16.0814
1299 1 -5.89594 6.86513 17.1266
1792 1 -3.72539 34.2267 17.1528
1208 1 23.3635 6.32042 18.1854
1747 1 -1.63908 19.7268 1.94039
348 1 -2.55187 18.837 3.09005
447 1 26.2384 -8.45687 0.90784
1408 1 12.8409 4.67163 16.7483
721 1 13.6107 20.2648 0.270184
290 1 -0.619745 6.66918 4.20508
272 1 -12.6342 -5.95974 1.82711
366 1 1.88286 7.72964 2.87725
873 1 15.3826 22.1445 -11.4276
534 1 -11.1263 -5.3436 -12.2383
796 1 -12.6551 -20.0652 3.01106
283 1 30.3759 8.68608 2.27614
340 1 1.86334 6.67062 3.12438
413 1 30.2392 7.42107 3.60629
155 1 19.9609 8.55968 -12.5338
1587 1 5.97206 -4.81535 18.414
783 1 -7.10869 -18.6191 -11.5328
1932 1 20.1464 -17.6898 16.244
253 1 -6.09349 7.35015 1.51062
512 1 21.2147 23.0523 2.50329
400 1 -4.44615 7.88032 17.7824
1759 1 21.593 22.0537 -11.0456
659 1 -3.20831 22.8776 1.82439
837 1 -3.34982 -5.56328 3.20201
2034 1 11.8495 35.3006 2.00688
868 1 -2.20345 8.22936 30.3843
672 1 12.7624 23.0239 31.085
1061 1 -1.01376 -3.72768 1.8893
121 1 1.52406 24.4556 2.57485
241 1 -11.5721 9.29419 16.2276
1852 1 2.54461 8.41276 17.2611
987 1 14.148 11.0454 -11.5709
488 1 -11.2731 10.3555 2.65665
851 1 15.9948 11.6196 -11.4687
929 1 -11.8548 8.15226 -0.406473
1313 1 -9.53759 23.813 -12.4524
605 1 5.78434 23.051 15.54
144 1 -23.3049 9.2333 1.90711
615 1 5.04291 -3.41502 14.2626
856 1 4.43438 -2.40004 2.01735
889 1 -7.6611 10.5736 16.7387
530 1 20.8772 -4.55345 15.2249
1448 1 4.72955 -18.6112 1.23542
1455 1 -7.33289 23.6852 1.12519
847 1 -19.1289 -4.68309 15.367
1883 1 9.40157 8.80369 15.9891
177 1 -5.06194 9.62024 2.46569
1842 1 8.35904 10.2445 16.8748
1108 1 23.1041 -17.1564 3.22875
1555 1 9.69017 -3.84379 2.35489
758 1 8.67606 -3.39058 4.18083
1093 1 11.5571 -4.22437 16.6873
149 1 -13.6229 23.6937 -24.3987
275 1 14.9333 9.56984 -10.0862
2001 1 10.736 -16.7252 2.42909
2009 1 -14.9274 10.2587 16.5023
1663 1 15.8558 -0.68202 -10.8394
914 1 0.857326 -16.0421 -12.4942
1608 1 -12.4197 -15.6071 15.7729
1469 1 2.64453 9.75035 1.77248
1376 1 2.14325 -1.79396 16.9162
1923 1 -10.4722 10.5671 2.06518
1270 1 16.1082 -16.442 15.1231
1281 1 -10.2433 -15.8049 1.7443
118 1 31.4475 -15.3534 16.6648
2024 1 -7.16621 12.0403 16.6503
761 1 18.1416 -2.42501 0.896595
1278 1 19.646 25.2944 1.98426
578 1 5.5251 10.6951 1.79837
1135 1 -6.23482 -0.830732 15.9444
655 1 8.31786 11.0288 -12.4382
1686 1 21.4546 -3.66135 1.80315
51 1 -17.4824 24.1645 1.43789
1096 1 8.13355 -1.55989 -11.672
419 1 8.89543 10.7537 2.49521
1939 1 10.0756 -2.67608 17.128
1626 1 10.3437 -15.8279 15.2664
154 1 12.3675 11.6916 -12.764
1289 1 0.974642 -2.00815 16.949
1026 1 -14.7391 -2.0558 1.93271
1155 1 1.38675 13.8767 -9.72172
1668 1 -13.0536 26.1297 16.3874
1306 1 -12.0882 27.2908 29.0532
1332 1 16.7873 -0.0120397 14.6278
1855 1 29.4793 13.9205 0.345502
1138 1 16.7733 -1.33952 -11.222
2043 1 15.8115 13.0624 14.5782
1317 1 3.96439 12.5524 1.61085
1829 1 5.47811 -1.18918 -12.3236
1753 1 4.85709 12.6808 3.53949
1871 1 4.58054 0.668851 16.6122
104 1 6.96058 0.14941 15.9275
955 1 -5.31907 -0.178663 -11.3664
1226 1 33.6808 12.76 15.8241
1388 1 -19.3941 -0.586807 16.9066
764 1 -3.84986 26.6558 14.7357
1602 1 8.88997 13.2516 -12.3149
1505 1 -5.53766 14.0898 -10.0581
1716 1 23.1854 -15.7899 2.49673
553 1 10.1775 -14.074 2.55144
193 1 -16.7232 12.5404 1.5269
2008 1 10.1185 -0.60787 3.61584
26 1 13.2578 -1.44934 -10.9468
110 1 25.2726 -2.54539 2.83513
207 1 11.9835 -1.35936 16.0615
1681 1 -28.8421 13.3798 16.6923
1651 1 13.5716 2.16236 32.1036
1736 1 2.00397 29.367 16.1983
323 1 -0.0550121 14.2989 16.6643
1056 1 1.44619 2.60581 17.2646
1430 1 28.9167 1.66989 -9.58066
466 1 2.34548 15.0191 3.36231
797 1 3.44987 0.381369 -24.1871
1363 1 -21.9188 0.496942 3.41999
516 1 20.0746 0.0452341 -10.5083
1334 1 7.33653 2.27733 16.4521
1767 1 6.61586 15.2572 30.9405
1726 1 -7.13702 42.0169 29.9889
1534 1 -5.26507 15.9608 3.55333
153 1 7.03406 15.9276 -9.47752
1981 1 8.88754 13.7598 18.0698
166 1 -4.51356 -0.275538 19.043
1833 1 8.3098 14.8577 18.1044
1507 1 10.2627 14.1639 17.5212
542 1 -15.6853 1.21185 3.95873
1241 1 24.3213 1.42645 17.5008
746 1 -27.8704 -0.461504 3.97309
1647 1 12.795 0.826121 17.2405
785 1 27.05 -14.0541 2.80892
870 1 -13.7058 -13.0704 4.0046
1181 1 14.5832 2.7906 18.2335
1245 1 14.2799 1.81874 17.6017
95 1 -1.2203 15.6271 5.18329
1777 1 17.419 30.1006 17.1698
192 1 15.342 16.8595 2.73729
82 1 3.07451 1.04499 2.38505
1952 1 15.7219 2.67242 32.1234
910 1 18.8397 17.7237 -10.7187
728 1 4.61711 29.3191 3.46794
24 1 3.58688 1.77944 3.29398
706 1 4.86372 17.3713 -8.99062
487 1 -10.5507 2.83035 -9.35902
392 1 6.2237 16.1164 4.81092
1150 1 4.99706 16.5782 -9.6076
923 1 -7.34135 16.9391 30.6264
308 1 6.69181 3.71407 4.29651
571 1 7.68665 3.28349 3.65327
49 1 6.96179 2.80724 5.4003
81 1 23.051 1.0047 3.88198
1364 1 7.92583 2.74018 -8.12788
895 1 37.2398 0.989962 -10.7126
195 1 -3.24711 0.969269 15.5834
952 1 23.495 3.96279 3.03462
44 1 -4.67156 2.14582 4.56747
1915 1 25.3695 1.99849 2.86707
329 1 -3.56403 16.882 3.59415
1731 1 -15.0176 29.2739 17.6653
1542 1 -2.97571 2.49179 3.00567
1703 1 -11.1054 2.86702 3.3521
342 1 14.3619 -10.3552 16.7134
1171 1 14.1644 3.72057 5.11277
450 1 -12.0203 3.65744 -8.67539
1355 1 -11.3026 3.75648 31.522
848 1 -11.2758 -9.24449 32.2858
221 1 17.0569 17.6353 4.57375
1467 1 30.0716 4.69667 17.4536
539 1 5.95037 18.356 -10.3479
1450 1 4.90979 4.86446 2.41519
1319 1 6.96461 4.25111 3.42491
1648 1 4.28979 6.35936 3.63152
838 1 -6.25305 -8.30166 -10.5102
927 1 -4.87609 3.5854 16.8049
295 1 -6.47602 18.0255 2.31205
1377 1 -5.03941 -9.0057 3.72923
573 1 23.7776 -9.68106 4.65395
242 1 9.22587 4.72589 -11.0534
649 1 11.1505 16.994 30.9823
1561 1 -0.18509 16.4601 17.5222
1174 1 14.0333 3.63972 17.7575
708 1 -14.4413 3.90327 17.616
38 1 -1.48048 16.9155 -9.36669
1835 1 -11.8188 4.73568 3.3614
1206 1 1.14447 5.36316 30.9666
1331 1 -12.6455 -7.29159 3.7389
1345 1 0.251848 -8.79628 17.7788
853 1 2.33364 -9.81511 3.04095
472 1 2.3418 5.93263 5.22189
1773 1 4.09386 -7.92819 6.32727
205 1 -10.3945 5.57287 3.60768
386 1 -10.5997 -8.41261 18.2209
1629 1 18.3038 5.80713 18.0983
551 1 -9.92477 -9.01056 3.94944
278 1 4.36518 -34.2133 4.58857
1362 1 18.2427 5.83019 2.73481
19 1 4.95654 7.46602 4.12022
867 1 7.91968 6.18678 16.2235
1098 1 19.1754 5.70609 2.77934
679 1 6.64548 19.0716 -11.1773
683 1 21.4474 4.23614 4.04563
1811 1 21.2585 -6.34464 2.52324
439 1 -5.4483 4.56733 1.69073
1052 1 20.1415 6.18269 -10.4904
1391 1 9.1515 4.09017 -8.02926
37 1 -5.41349 19.4808 -9.93309
355 1 -3.28133 -9.76306 5.84539
583 1 -3.5911 4.86486 5.29893
1659 1 11.7636 4.21612 4.19017
28 1 11.6519 3.78204 5.91301
1616 1 -0.386902 5.77931 3.47825
145 1 -2.27443 32.5107 17.9852
991 1 12.6305 18.5619 -9.62825
1258 1 -13.0573 20.6856 5.07334
669 1 -13.4751 -21.3152 4.46038
781 1 13.4354 -5.83819 3.68695
1038 1 0.105648 -20.3323 5.9247
1251 1 1.45348 20.4043 18.2217
1214 1 31.0891 35.7275 -7.94758
1547 1 16.066 -20.7891 17.7411
168 1 17.3073 -5.98733 4.46782
461 1 -10.1164 22.2195 16.832
545 1 -10.2769 20.018 -9.58003
255 1 19.2476 7.65958 5.13231
1536 1 6.6688 21.73 -9.12419
1962 1 5.92732 7.01671 3.95106
267 1 -6.79309 -5.15454 3.29498
1538 1 -6.43037 19.6158 31.4138
425 1 9.29348 7.30737 -8.51726
1583 1 -2.65323 34.0155 31.5515
430 1 -4.04186 19.3714 31.059
89 1 12.1374 -8.52721 5.06409
1894 1 -15.3906 7.19459 17.5025
1087 1 1.32447 8.50237 3.28595
1624 1 -0.31242 -6.17431 18.482
816 1 14.0167 22.292 3.96171
1385 1 3.29954 9.60036 -10.8684
880 1 0.58207 7.2171 -9.54122
860 1 15.4758 7.71861 4.10637
452 1 18.1249 9.02369 2.95138
1815 1 18.6414 -3.82233 15.5194
1893 1 4.01145 7.36301 17.1603
698 1 46.9691 21.9009 3.87937
1401 1 19.0654 -5.20765 15.8803
1183 1 -20.5497 -4.20526 18.3352
344 1 34.4599 -4.23404 3.602
784 1 7.68546 7.80754 -23.7326
1631 1 22.2054 8.49597 -8.98594
274 1 -16.294 7.78124 -23.2249
1291 1 -17.1399 -4.90325 4.12646
350 1 38.887 -7.45298 -10.5028
1228 1 10.6898 9.05806 2.88554
656 1 25.665 20.6198 29.8791
694 1 -2.67371 8.52124 4.86851
3 1 -1.4538 -8.23427 3.34987
502 1 13.7218 8.98152 3.01629
1581 1 -1.13051 8.85118 2.64301
1172 1 15.8 10.5697 -9.93046
1259 1 0.275918 9.81922 19.281
1805 1 29.1264 11.4261 4.14665
691 1 2.62143 9.5021 3.53311
1046 1 1.9397 -4.70898 4.47326
1312 1 3.43275 10.3084 17.1213
1499 1 17.8306 -3.15629 4.32821
1876 1 17.2174 23.9623 5.19203
2047 1 17.9735 24.6568 30.6526
1784 1 5.40765 22.7432 16.9395
1997 1 -7.7408 9.75803 17.4031
1394 1 6.04364 -15.7868 31.1723
547 1 -7.00844 -3.09976 1.93561
1054 1 20.5179 -3.18483 3.84305
1770 1 8.50533 -1.94452 2.95835
1802 1 8.30061 7.12115 18.155
748 1 -5.49568 9.26985 3.91953
1584 1 22.4814 8.77359 3.27165
1357 1 -3.95111 9.25112 3.20555
715 1 9.26159 9.15701 4.18227
703 1 10.742 -4.15563 5.06899
519 1 11.3175 -4.73377 17.5579
966 1 13.3458 9.61451 -8.79863
883 1 13.0561 -3.22978 17.3773
396 1 13.1872 24.6296 -11.018
1160 1 -1.19142 -2.336 17.3636
792 1 28.0694 -15.9231 18.0803
1300 1 1.42965 -1.12096 17.2006
576 1 14.9681 11.4547 -8.44727
740 1 0.854374 10.5846 17.0816
397 1 2.89569 11.2128 16.6696
1097 1 3.6809 25.0328 17.6435
644 1 -8.56603 9.99298 16.5548
96 1 4.75774 -1.899 17.6637
907 1 19.1148 -1.88949 2.90807
841 1 -34.1529 -2.52931 -8.73622
363 1 7.12709 11.2418 3.04444
1589 1 7.35355 10.3418 -10.9473
181 1 8.47087 25.7974 -9.77049
588 1 -6.29614 12.2731 3.4949
849 1 21.5636 -16.3111 2.2973
1102 1 9.07852 12.6171 16.6143
306 1 8.89151 -16.1973 17.338
1262 1 -4.83509 -2.49621 18.6102
1192 1 24.2471 9.68715 17.5393
1714 1 25.409 -3.13963 15.534
273 1 23.7198 12.1118 3.12091
303 1 -2.69428 11.4538 -9.91281
1683 1 -1.88359 12.2111 17.0576
1428 1 13.971 13.3142 4.67272
629 1 0.223724 1.67186 2.39573
1522 1 12.8541 39.6863 3.68576
557 1 16.0173 0.301637 -10.7799
696 1 2.25314 -0.82315 4.03906
382 1 16.2244 1.82516 18.1949
964 1 4.05627 12.6125 4.16332
623 1 31.8056 -13.7003 3.85808
111 1 3.13587 12.9542 -10.4622
1885 1 5.26133 -0.244056 2.75575
1057 1 4.89256 -14.7908 16.147
78 1 5.53456 -13.8384 -9.52669
1889 1 21.9645 15.4922 16.0939
214 1 19.5538 -1.08246 -10.0919
1754 1 21.8302 26.9073 18.9026
1022 1 20.7406 -13.1074 3.76382
1179 1 7.92476 -0.678278 -9.43997
747 1 -4.45109 13.7762 3.04868
1758 1 9.18988 26.538 4.05528
795 1 -3.56818 -13.6911 4.97324
804 1 -1.77393 -1.98305 18.1669
1203 1 9.65463 -2.15211 4.21532
1149 1 -1.49142 -0.385564 5.86025
204 1 -2.99733 12.4886 -9.38108
1379 1 12.6696 12.5745 4.66302
1573 1 15.7634 -12.4089 -7.26012
1787 1 2.31483 15.4863 -8.04764
1318 1 1.19709 -26.5132 -8.10256
406 1 16.1667 0.126855 -9.6947
391 1 15.7987 -12.7222 4.93836
794 1 3.19031 1.1802 31.464
1414 1 2.80353 12.9062 5.61314
1819 1 15.8516 13.9529 19.3165
367 1 17.26 13.8108 5.57542
106 1 17.7964 -1.00758 19.1479
2017 1 -9.12961 13.5491 18.7182
1182 1 32.3357 11.3254 7.85536
582 1 -22.3891 2.22965 -8.86519
1294 1 -10.6391 1.07959 -8.4207
934 1 3.89066 2.08377 4.26794
1011 1 -7.36205 14.7107 5.84584
1878 1 20.6321 1.5791 32.3311
2016 1 21.6069 15.6086 32.3416
959 1 7.33865 28.3537 5.87763
726 1 7.48111 27.7749 -8.93351
1548 1 -17.9621 -26.5122 -8.62469
1567 1 24.8742 2.12844 -8.59342
1070 1 10.7831 -12.7088 18.4392
771 1 11.652 -14.6857 20.1543
1077 1 12.0959 -14.0083 4.19126
1877 1 -2.49626 29.1132 20.5836
1170 1 11.8027 2.01335 5.98261
347 1 24.8867 13.567 4.9298
477 1 25.6195 28.3002 20.4844
800 1 -0.862245 1.05313 -8.93738
302 1 0.905463 28.3321 -9.10851
567 1 -0.480258 3.28294 18.457
886 1 1.25269 16.4858 -8.12142
262 1 3.19745 2.50998 -8.23595
995 1 -24.3169 2.28669 20.132
20 1 2.23569 1.99969 20.7448
378 1 4.01949 -10.6426 4.80529
1425 1 4.02333 15.67 5.42019
1750 1 45.8049 -10.6928 5.53725
1702 1 -21.6293 -9.77722 34.1198
1781 1 5.51275 15.2536 -8.39877
1886 1 19.4437 29.7201 19.4252
575 1 19.6354 2.54022 6.86854
1242 1 21.6334 3.09472 20.7595
1488 1 -4.85543 -11.9688 -8.13882
517 1 7.60291 -11.7331 5.99894
107 1 24.7044 3.50137 4.66106
932 1 -3.53139 1.61349 5.83289
700 1 9.97641 1.57477 4.62665
445 1 -1.81439 1.93759 -5.88202
825 1 -1.78497 2.91705 5.2369
1909 1 10.7876 -11.2228 4.19633
919 1 1.66065 -8.6753 5.44849
833 1 -1.01838 -12.2055 -7.63947
1491 1 15.8133 5.45282 31.6598
1421 1 3.52623 18.6192 6.44125
504 1 43.7658 17.1353 5.10032
428 1 3.78111 30.9143 19.3647
1405 1 18.3805 32.1882 -9.11903
1122 1 4.7362 5.01896 17.1723
1287 1 4.11949 3.08051 6.92962
404 1 7.82276 3.34604 18.4248
4 1 -21.6768 17.9837 -9.25945
1131 1 6.62244 4.0474 -8.23705
631 1 5.74649 17.0788 -8.5585
232 1 8.70051 17.6319 -9.12901
1950 1 36.5153 -10.6206 31.3699
1519 1 22.6067 2.79771 32.7496
1427 1 -3.76592 2.13597 3.75688
1253 1 24.3835 16.4632 5.89912
1238 1 8.14169 5.05197 6.54153
634 1 12.6692 2.62765 5.92976
101 1 -0.345241 4.36881 -8.74673
1998 1 13.0719 3.5741 19.7665
1854 1 25.4592 -22.2564 -7.65709
742 1 1.4304 18.1697 -9.29273
1156 1 -13.0196 33.4866 -8.13724
231 1 0.513408 32.3129 18.8464
710 1 3.74829 17.6619 7.08911
456 1 2.58911 -7.20697 6.15388
1296 1 4.05608 7.22674 19.5048
1264 1 30.7451 32.9411 5.54453
584 1 5.26763 6.32421 -10.0409
133 1 -8.1677 19.3204 -8.53681
129 1 31.8568 5.45721 5.41046
554 1 5.84731 -8.29457 4.12224
1240 1 8.01784 -9.55346 5.31243
1194 1 7.76476 32.6702 18.4234
1423 1 -18.2775 4.78564 4.75954
1416 1 7.39048 -10.1047 -7.76066
1004 1 8.64607 18.7258 5.71726
1860 1 9.90561 16.3177 18.6804
171 1 -3.05016 18.4123 20.1561
1493 1 23.2697 4.87724 6.2955
1660 1 -1.32153 19.7182 -7.92892
248 1 11.1023 19.5111 5.23079
497 1 -2.58867 4.40221 -8.38556
1210 1 26.6331 4.94525 6.00069
775 1 13.9758 7.36288 20.5318
1738 1 -0.748376 -6.75494 20.3036
1957 1 1.17603 5.65671 4.54305
1139 1 2.16711 7.45915 6.61761
662 1 2.13661 20.743 19.1558
1369 1 1.14724 6.98134 6.13762
622 1 4.42626 21.5056 5.10531
635 1 31.2413 9.46005 3.97989
2029 1 -8.6232 22.4509 5.17102
1282 1 4.92622 -20.6187 -7.78656
511 1 4.9449 -5.84236 -7.6597
415 1 33.2725 20.2434 5.66827
1037 1 -8.28911 -20.6634 4.71789
566 1 19.4072 -6.43392 -7.29641
1600 1 20.6319 -6.70867 4.16925
763 1 20.0154 6.21298 4.66953
1375 1 7.53296 -21.002 -8.74126
1646 1 7.57677 -6.59005 5.84006
579 1 23.0186 5.70493 6.76546
1204 1 21.3026 -5.81857 18.7641
1146 1 -3.33956 6.54438 18.8475
1349 1 -14.073 19.1131 18.6211
1953 1 -1.81189 6.17708 4.60088
11 1 -1.79427 -5.89318 4.74165
1946 1 27.2868 23.9714 -7.19012
865 1 -0.849907 9.00533 19.3402
184 1 0.995378 23.6057 4.65982
1403 1 -0.121363 8.53713 5.1632
2038 1 -12.5986 7.95596 32.1586
1618 1 1.24457 9.07887 32.5329
1639 1 30.0629 9.06049 19.113
1460 1 16.051 8.03948 5.05648
2045 1 18.3409 8.65879 -9.55406
1652 1 -8.56511 9.6459 4.73347
2039 1 4.33772 7.33762 20.5597
1085 1 5.87027 -5.19095 19.7178
147 1 47.0505 10.2037 4.87025
1454 1 20.3738 21.5504 5.85618
1992 1 21.1894 -5.01203 4.35015
75 1 -5.27797 9.53905 -8.77393
1590 1 6.53338 -6.5437 5.09519
1436 1 22.3604 7.99544 34.2047
901 1 8.80725 22.5649 6.03368
362 1 9.56132 -5.1907 5.00187
1752 1 22.3035 5.94094 4.67495
888 1 37.7573 -19.7304 5.11013
2042 1 11.0444 23.1898 20.0549
1370 1 -14.8422 8.04837 5.48261
318 1 12.4416 -5.36435 -10.1456
1514 1 13.8866 9.81308 17.6325
222 1 0.955884 9.92847 6.41841
1788 1 15.5469 24.3336 4.97872
1841 1 26.5251 -5.10517 -9.26053
143 1 1.03324 -16.4411 -7.55456
875 1 13.6052 -3.11853 18.2664
1106 1 -11.7574 10.4046 6.26365
1280 1 4.83666 24.6034 4.96959
2014 1 17.9591 22.1751 20.2669
394 1 5.18548 10.0102 7.983
1275 1 6.30118 9.78999 19.5503
1739 1 20.4969 -4.84402 6.39211
1970 1 -32.7015 -3.07311 34.2113
1839 1 9.53387 -17.7812 18.8965
285 1 21.3089 -17.3447 5.94302
2020 1 7.55316 10.1468 18.2511
1257 1 21.5068 22.6041 5.52132
1633 1 -3.3568 -18.385 19.5853
1934 1 -4.94336 -3.49254 -7.84619
1850 1 -3.39848 -18.2238 34.3243
1230 1 -0.826469 10.1197 19.3447
377 1 39.2266 9.63381 4.47572
1088 1 -0.167427 25.099 3.85927
489 1 -2.13234 10.9222 5.17056
492 1 13.1025 54.8426 5.26031
1710 1 14.8103 -1.0091 4.4739
1058 1 -10.8936 11.1506 18.289
1152 1 17.2693 11.7384 19.5801
256 1 16.4414 23.7063 -9.23171
119 1 2.98457 25.73 17.5401
1662 1 3.89036 11.5203 4.9647
1476 1 5.24591 10.8884 3.92437
1972 1 32.1488 -3.5101 20.5042
1521 1 6.69968 -1.49022 18.0751
559 1 19.7951 -1.60841 6.52928
1417 1 21.5044 -16.1279 18.0922
1351 1 -21.3424 11.1565 19.4251
1971 1 -5.8569 11.2377 -8.2435
1201 1 20.2716 12.0276 -8.1243
1533 1 21.3974 25.1401 33.8189
933 1 7.5263 -1.16986 6.99759
1504 1 22.6347 -1.77649 20.5752
1993 1 -16.3522 24.3373 4.41294
440 1 23.4724 -3.87478 6.27215
628 1 10.5268 -2.21008 4.99928
982 1 11.8851 10.4666 3.62927
1875 1 23.3124 -16.9672 4.36662
1053 1 28.0035 -14.9374 5.59655
989 1 -1.37233 37.9747 4.54458
1516 1 12.6107 24.6717 5.3559
151 1 13.8337 12.4841 -23.5316
1847 1 15.7228 13.4224 18.5079
233 1 17.143 13.5759 -9.21037
546 1 0.565322 -0.320986 17.0671
1814 1 2.23656 11.9977 18.6562
169 1 4.4316 -0.0605696 -7.48882
271 1 18.5495 1.27021 -9.34786
1831 1 31.5168 -2.92686 19.6068
336 1 16.8811 26.0388 18.5258
1477 1 20.6501 13.2058 17.5794
561 1 6.45416 14.2433 4.5097
59 1 5.48758 12.6217 -9.16371
1613 1 19.655 26.907 18.7732
332 1 -19.5871 13.6423 6.01962
941 1 6.70434 0.144198 19.287
722 1 21.3437 12.1607 18.4939
1103 1 20.678 -0.590681 5.00664
1745 1 -6.43952 26.4824 19.5923
1326 1 -18.6431 12.1383 18.7618
1457 1 9.52967 26.0156 19.6413
1124 1 -3.35495 14.1121 33.1534
731 1 8.11295 -1.41988 5.95638
198 1 -4.00311 26.1037 4.85386
663 1 11.6612 -1.10205 18.9494
352 1 26.8422 12.9478 -7.84573
495 1 28.4575 1.10245 -6.84529
1614 1 15.1648 2.03752 33.5773
251 1 30.8528 -0.784163 -7.20858
944 1 2.48195 13.6247 6.57824
1654 1 2.97366 1.21521 6.97525
1744 1 -9.64875 14.4258 18.3528
2006 1 17.1187 13.9673 6.81824
789 1 5.83927 -25.8373 4.25691
1560 1 -8.32929 0.486076 5.0013
276 1 5.19049 -14.7612 -7.77005
1825 1 -8.07802 0.241427 5.99598
664 1 7.70225 27.8445 -20.2866
782 1 8.38876 1.19074 20.0955
66 1 22.7531 -25.2246 6.44275
1685 1 8.77555 13.9138 -6.92087
398 1 -5.44619 15.2807 -6.1314
141 1 8.87273 13.4802 8.99277
768 1 -2.3933 13.9615 6.29081
900 1 -5.43123 -12.943 5.34887
1607 1 11.0553 1.3022 33.279
1249 1 10.5207 0.882064 20.4066
128 1 24.2275 0.900542 8.50639
903 1 -2.41401 14.3281 7.61031
772 1 -0.865872 0.47604 19.8976
150 1 -1.79004 13.2994 -20.051
1466 1 -0.884723 -0.899231 21.5262
1474 1 13.592 28.6154 5.6814
1515 1 14.8808 15.4832 5.24875
1827 1 1.60082 28.891 8.08435
1698 1 1.08267 15.8723 7.36842
1110 1 30.1903 3.52759 21.2299
1887 1 16.4845 2.5351 8.06725
1779 1 -9.85064 42.0839 6.16046
967 1 18.2008 15.9881 -7.42521
247 1 3.81954 -11.7036 7.23727
1642 1 6.46484 15.5566 -7.40717
990 1 19.1354 1.53726 -20.9827
968 1 4.78556 0.855218 -7.89929
62 1 19.5484 -11.1071 -5.67127
540 1 6.82721 2.13886 7.36844
1870 1 5.06301 -24.4329 7.41039
590 1 5.94172 15.198 -6.16753
1630 1 23.4175 -10.6353 -7.70338
158 1 -4.49551 1.33043 7.11707
523 1 23.6775 15.5319 34.1791
1027 1 -5.34874 2.60143 7.93992
92 1 9.35973 14.6132 -7.53746
905 1 -3.40337 2.8502 20.7817
1176 1 26.0588 -9.73869 5.09529
1830 1 12.3654 -11.3818 20.5321
581 1 -0.229421 2.42567 20.2738
1661 1 -0.580971 17.1394 20.8004
1644 1 11.8834 0.90766 5.37644
720 1 0.304582 4.3418 19.691
218 1 13.8419 16.4581 5.66463
358 1 2.94494 4.33546 19.5929