ITEM: TIMESTEP
170000
ITEM: NUMBER OF ATOMS
2048
ITEM: BOX BOUNDS pp pp pp
0.0000000000000000e+00 1.3679807573413575e+01
0.0000000000000000e+00 1.3679807573413575e+01
0.0000000000000000e+00 1.3679807573413575e+01
ITEM: ATOMS id type xu yu zu
441 1 -0.216323 15.1388 -12.9839
1042 1 14.2579 -13.3668 14.6586
851 1 13.7688 14.3456 -2.01039
1371 1 2.29583 -13.6093 -12.4241
461 1 -12.1636 14.5194 14.8129
442 1 43.0263 0.0742651 2.26042
980 1 1.24572 13.1743 -12.4459
1530 1 5.3458 29.0731 -1.01602
412 1 30.7359 -0.155032 -12.6689
104 1 3.17918 0.868288 16.8774
1562 1 17.3209 -12.6406 28.7133
999 1 -9.10552 16.6459 1.21954
150 1 5.0692 14.6095 -13.8403
36 1 6.89942 0.741237 14.0314
1361 1 6.34701 -13.6316 0.997691
1071 1 32.3928 0.420757 14.4253
1802 1 7.43789 13.4081 14.8518
1890 1 9.04113 -13.506 0.634966
511 1 7.77317 -0.730238 -0.375878
1233 1 21.6547 -12.3129 -11.5729
955 1 -3.7534 0.584588 -12.9401
1915 1 23.6411 1.31769 -0.389947
1549 1 9.07993 -12.3125 27.9862
1507 1 -0.406686 14.0025 14.6287
310 1 0.0557854 15.3693 -0.41246
657 1 -1.13049 15.6727 14.0631
1439 1 12.6446 16.7039 28.0336
1229 1 14.0433 1.16929 1.66826
849 1 16.1182 -12.0471 0.958231
1146 1 1.05982 15.5837 14.6101
1618 1 3.35235 2.02642 28.569
1782 1 -8.24207 29.2274 28.058
565 1 5.45734 17.5678 0.938811
1716 1 21.3496 -10.0843 0.259203
1943 1 -5.45003 15.117 13.7244
30 1 6.05137 -12.5887 -13.8369
867 1 6.0729 14.7418 14.7343
214 1 22.0419 15.6757 1.12611
1110 1 23.391 2.04972 28.948
369 1 9.19159 0.51263 13.3187
1682 1 24.1129 16.4882 28.5987
1398 1 10.3555 4.84621 14.9341
500 1 -3.98268 3.877 -12.661
644 1 -16.5099 1.77332 13.6374
959 1 11.1426 29.9934 0.323162
1561 1 -1.41892 14.6523 14.5028
693 1 -2.355 -11.6756 -14.6029
824 1 14.5469 2.55779 -0.0423867
1088 1 -0.2564 18.6019 0.0709987
1511 1 14.1101 31.2385 0.363454
1830 1 13.609 -11.195 13.9704
1421 1 0.949448 17.2865 1.86493
1057 1 2.50405 -9.09143 13.9547
1269 1 1.82105 16.9236 13.9926
843 1 43.5836 3.46158 14.6459
1497 1 17.4032 3.62078 0.374656
2005 1 17.8443 3.78298 -0.549561
905 1 3.66614 4.52824 14.3029
159 1 4.0057 18.6416 13.3442
545 1 -9.07419 17.9584 0.279852
1982 1 20.3583 1.82474 13.6289
1733 1 6.19022 30.2921 2.1479
1274 1 7.63871 17.69 1.24127
1394 1 5.4443 -8.83528 28.7427
1291 1 -6.80844 -10.9203 0.100278
921 1 8.52251 4.07508 1.74515
512 1 20.301 17.2626 1.34531
490 1 -4.34182 18.0651 -24.6089
1554 1 20.6912 -9.82362 12.9591
1629 1 7.98239 5.02229 13.9698
898 1 10.967 17.6612 13.2915
1712 1 -5.64143 5.51158 1.20282
286 1 10.7348 17.2707 0.492273
245 1 -3.51569 16.3935 -0.0364324
449 1 -1.60869 3.89633 14.1913
607 1 28.6821 4.12662 1.11662
212 1 -0.915229 -7.71894 -13.2854
566 1 15.8358 -9.01884 -12.3266
1992 1 16.9369 -8.10848 13.6619
1545 1 2.31902 18.9713 13.1819
1170 1 16.692 5.30112 1.03413
1740 1 4.84811 5.50589 14.4228
704 1 17.8098 4.29727 2.2523
1205 1 3.99903 19.7053 14.879
923 1 5.7218 18.3428 27.6374
1517 1 20.4073 6.86854 14.1707
788 1 19.5023 5.94002 14.6363
1200 1 6.58174 -8.75894 15.1978
424 1 -6.79893 5.3584 2.46661
1351 1 -19.6609 18.5035 15.7767
1086 1 8.98991 5.48685 -0.212428
1922 1 -3.98858 4.57844 13.8405
1959 1 -2.0936 18.6784 1.57253
1001 1 -1.11464 4.36332 -0.269671
582 1 -16.3188 4.74696 -13.2822
226 1 -16.6024 19.9529 -0.682453
1718 1 25.9494 -8.55438 14.3319
1944 1 14.0787 18.0295 1.44017
1454 1 15.0487 19.9436 0.0864937
1051 1 28.2507 6.27637 2.11841
1093 1 16.1375 -6.05215 13.6032
1000 1 1.94176 19.3414 15.619
1927 1 2.37852 6.38482 13.226
1572 1 -12.2561 5.61022 12.9051
132 1 18.4737 8.4858 13.5195
1887 1 17.8693 6.0168 13.6688
973 1 4.93028 -7.7364 16.121
477 1 30.9501 21.4435 13.3196
1659 1 4.35785 6.9333 0.771115
1807 1 4.96695 -6.69687 16.2144
1136 1 4.56131 7.14136 -0.157117
362 1 6.19941 -5.76879 1.29161
1106 1 -8.02719 6.88543 0.595816
1065 1 -6.89917 6.34724 1.40317
1941 1 6.55762 19.9291 -0.428033
542 1 -8.72142 6.40708 1.29816
493 1 7.69284 21.1394 -0.000576809
970 1 21.3062 6.39271 1.99652
57 1 -5.04039 6.7221 0.200116
443 1 9.25159 20.8492 -12.1126
465 1 13.5835 20.5565 1.31913
1987 1 -2.18657 5.69974 14.4547
510 1 -0.991401 7.57389 1.11599
411 1 14.7011 -6.60002 1.09359
1375 1 13.9602 -20.7039 -13.3301
1332 1 14.4691 -5.05028 15.2352
2043 1 14.574 8.30036 14.0842
1289 1 3.01039 -4.17023 14.5111
993 1 2.2498 8.82993 -12.2391
1794 1 2.0169 -3.72624 14.8189
1701 1 4.1445 21.5764 0.528825
1689 1 29.302 -6.26268 16.2512
1383 1 3.21359 9.59667 30.4048
35 1 4.6057 -32.3428 1.46624
507 1 3.35067 9.03839 1.67847
1724 1 18.9893 23.1275 13.8502
1736 1 5.37559 21.4436 13.8407
1348 1 3.99642 -3.68671 12.4408
1409 1 -6.55804 7.82733 28.2212
1599 1 33.1951 8.71761 27.2927
1401 1 8.6981 -7.36294 14.9334
75 1 -6.19207 8.35595 1.60896
1376 1 -5.12295 -4.85689 1.05326
382 1 8.10889 -4.349 15.7487
1257 1 23.9748 21.8183 13.0175
660 1 10.3025 -4.81656 1.08979
1152 1 9.86877 7.97433 14.6852
990 1 23.9479 7.30106 -13.4225
397 1 11.4149 7.33757 15.9485
1178 1 10.6348 7.44433 15.1795
1788 1 14.1749 23.0417 0.710827
83 1 -1.5604 10.1341 0.323302
930 1 -14.4138 22.1107 13.473
520 1 -13.5658 -19.5989 0.713683
917 1 15.051 -4.26062 1.71776
1939 1 2.5842 -4.32023 15.9461
1639 1 28.3169 10.2095 15.0225
416 1 1.79123 24.476 1.94639
938 1 16.3394 10.6138 13.6096
974 1 3.63158 10.0497 2.0482
590 1 2.83379 11.9816 -13.7327
1867 1 4.14119 9.31709 0.617565
994 1 3.26457 -2.53037 0.603867
38 1 4.15084 10.4461 -12.6308
1431 1 5.13112 10.3123 12.7248
963 1 -8.86314 10.2698 29.4203
1214 1 33.7591 36.9544 -0.362998
1231 1 32.7857 8.71571 14.5508
688 1 6.24475 8.9898 1.68946
610 1 7.47447 -4.14231 -1.97984
1355 1 -4.98113 -3.58884 28.2135
1420 1 20.5965 -17.4098 15.7796
202 1 10.6286 -5.32064 0.346128
1311 1 9.34858 -17.9084 27.5631
692 1 7.26454 -4.11143 0.267296
1184 1 9.71895 -3.36902 -14.249
645 1 10.2411 -18.1085 -13.9615
539 1 11.3114 9.08353 -14.0653
383 1 11.5247 9.29304 0.821208
1484 1 -0.104969 10.7007 15.6869
724 1 -0.41505 9.85761 13.6613
181 1 1.66735 23.1185 0.266779
1506 1 0.511182 11.8992 27.6412
322 1 0.20015 -3.09558 0.46338
732 1 15.3553 12.0506 13.5151
650 1 1.45531 11.5321 -1.63882
11 1 1.10255 -0.774319 2.44701
1754 1 15.0165 24.1888 14.0845
1384 1 2.83307 -1.50363 16.0666
952 1 17.9631 -2.20436 0.633979
859 1 18.2899 -3.19196 13.6972
1957 1 4.42335 -1.29881 1.13195
1626 1 19.5616 -16.8899 13.7952
404 1 4.73364 11.3066 15.1965
1998 1 6.94287 -2.45962 14.1485
1897 1 7.15241 -16.4844 -12.1175
363 1 5.37549 11.8495 0.864483
2008 1 9.13249 -2.77376 2.48538
750 1 7.70357 10.2196 1.13242
144 1 -16.4743 10.098 -0.188248
1726 1 -3.37542 37.2363 28.0037
1827 1 -3.13618 25.8331 13.7878
183 1 11.8279 -1.048 0.322521
870 1 -14.277 -2.20537 13.5213
1419 1 12.8057 12.236 14.2984
941 1 -1.37716 -2.64544 14.4075
1547 1 11.9768 -15.5699 15.0171
1379 1 0.172313 13.5543 -0.153549
1225 1 15.5874 11.8966 2.03706
1945 1 13.9708 1.05392 3.19003
816 1 14.3766 14.0196 2.40652
1723 1 2.24525 12.7401 15.3443
9 1 15.1575 13.8045 0.32683
924 1 3.56991 -0.946237 15.4103
2039 1 6.50518 12.2843 27.903
1772 1 -9.28971 1.36547 0.783743
609 1 7.63546 -2.19353 -11.4593
1815 1 19.6976 -2.18576 13.2592
1860 1 8.09941 12.5364 15.2656
331 1 8.04462 10.4593 -11.3138
695 1 21.53 11.4077 -0.00991507
929 1 -4.43761 -2.73278 1.30367
4 1 -17.4091 11.9093 -12.5361
370 1 9.42012 26.6761 1.08259
1825 1 -16.9172 -1.9198 2.20941
664 1 12.2621 27.3973 -13.1554
1015 1 -0.804779 13.1377 -0.161112
901 1 13.9833 13.2962 1.76767
1305 1 -12.2624 -1.5907 1.04105
1801 1 -0.541282 12.0645 1.8336
423 1 13.0726 15.3587 3.05711
44 1 -0.393552 0.542189 2.43484
365 1 11.8326 15.1801 2.01542
881 1 0.048369 0.275648 4.65481
827 1 0.845812 0.330304 17.7263
371 1 -11.5578 15.7429 3.90193
795 1 2.59185 -12.8493 1.9889
1823 1 14.924 29.0031 2.77501
188 1 1.77453 15.2904 15.4658
773 1 4.10574 0.701065 2.56425
280 1 4.67997 14.6435 1.6981
375 1 19.5813 0.853277 16.1939
1056 1 4.30364 0.0464284 15.1012
259 1 -6.83975 40.4582 -11.7552
486 1 6.95405 14.5334 1.57155
385 1 -4.6629 28.633 15.298
22 1 -5.56471 -13.0283 16.6716
1443 1 9.04802 27.5588 15.3921
613 1 8.15092 -0.0963502 -11.605
1839 1 9.0349 -12.4729 16.4108
1730 1 -2.62517 2.00966 17.839
6 1 -3.51589 1.56703 16.2469
281 1 10.2458 15.2695 0.920216
1115 1 -0.868337 -14.3305 14.9291
304 1 -2.22273 0.55123 16.3523
681 1 11.7407 -12.0916 3.53524
562 1 12.7881 -14.0628 2.41556
855 1 -1.34109 0.726696 16.9098
301 1 13.6955 2.20337 14.9955
1259 1 1.09433 16.2776 15.547
1334 1 13.4837 3.27263 14.9711
597 1 13.7957 1.93039 2.29866
1790 1 2.35605 1.57915 2.69002
1341 1 26.5079 1.35618 1.63536
1242 1 15.9789 3.05611 16.4592
1758 1 3.49663 28.8971 2.33312
1691 1 -8.32722 3.79859 2.07319
330 1 19.2645 2.91273 3.08762
1658 1 5.97136 1.69798 15.5821
1631 1 20.737 2.29588 -10.7251
1480 1 -5.62777 27.9969 14.8852
72 1 5.59198 -10.7655 -12.6345
575 1 8.20016 2.49119 13.8922
138 1 7.37005 2.26331 -11.7585
1122 1 9.45134 4.81755 15.444
593 1 8.87798 2.15691 2.1274
1603 1 -2.83907 15.6393 29.1634
1706 1 -14.9078 17.452 15.2636
1883 1 11.1134 15.6996 16.5106
121 1 12.872 15.7837 4.05428
1450 1 -2.07857 1.87569 1.00347
1542 1 -1.35792 2.29832 2.77402
143 1 -2.03875 -24.5164 -11.5097
1574 1 -0.989067 2.83948 29.28
422 1 -0.031041 2.91488 -25.0673
1586 1 -12.5883 4.75601 16.1336
70 1 -0.725884 5.17628 1.2992
1844 1 14.5023 -10.546 0.976613
27 1 1.92184 -9.9069 -11.6251
761 1 17.1863 3.15041 1.33406
1719 1 15.8346 2.541 -12.3475
1609 1 4.83035 4.4386 17.5983
1608 1 -7.93991 -9.84775 17.1725
491 1 -8.76735 17.5268 -10.6475
1818 1 7.52041 2.81877 1.10376
895 1 33.466 4.54997 -11.3318
800 1 -4.25438 3.01055 1.59298
703 1 8.21527 -10.7572 1.95993
1344 1 22.9754 -8.2771 4.56371
567 1 9.30598 3.58172 17.077
135 1 -17.1898 17.5024 29.3407
860 1 9.18237 5.49757 0.873627
439 1 -3.65294 5.36667 2.45273
1746 1 11.0661 4.01273 15.0545
1822 1 -2.05275 3.1203 14.8455
139 1 11.469 17.5582 -11.0509
1105 1 -0.14596 -7.73998 -11.6919
1463 1 13.2959 17.7378 2.13923
555 1 15.4374 6.41364 16.4284
1162 1 13.6799 5.64334 17.0033
114 1 3.26717 19.5516 -10.2233
1564 1 16.8248 17.9635 15.1289
1186 1 2.14398 5.8204 0.825879
700 1 16.6956 3.7768 2.43816
1253 1 17.2356 18.5124 3.03383
129 1 30.3005 6.29924 1.44537
1986 1 3.92276 18.7246 15.2004
1292 1 18.5855 4.8965 29.6517
284 1 19.1251 -22.4193 16.8731
101 1 4.29614 5.67328 -10.332
797 1 6.49123 5.00716 -23.9768
205 1 -6.36455 4.32853 3.02829
1544 1 21.1539 3.65205 15.8815
776 1 8.24131 5.14604 16.6315
2004 1 -16.5661 -8.0536 29.1388
425 1 12.7807 6.90868 -11.5942
1268 1 12.6378 5.51477 -10.9816
402 1 26.5795 6.29793 17.1279
899 1 -2.96394 4.73185 29.8267
7 1 1.02964 19.5926 0.969124
1315 1 -13.6372 5.69939 0.707023
1158 1 25.5982 5.86705 3.68426
1369 1 0.41966 6.54672 3.48075
1459 1 1.23868 -4.91664 30.5786
1725 1 15.579 -5.77432 0.851497
1023 1 17.0843 20.4446 -13.3282
947 1 15.9762 6.79552 14.1634
1851 1 3.84165 -6.91206 1.92852
568 1 17.5414 -7.10477 3.09399
335 1 4.70944 -5.61066 2.57379
1386 1 5.83243 -6.4171 16.5475
635 1 31.664 7.36206 3.78676
727 1 5.79989 -5.61457 2.26268
612 1 -7.80889 5.77324 2.07772
1632 1 19.8949 -6.76544 3.87232
811 1 19.5668 -21.4264 3.15143
94 1 20.8804 21.0084 1.92231
1616 1 8.14961 7.1623 2.54798
1203 1 5.83247 6.88056 1.76412
1300 1 6.5586 -7.04158 16.0931
1737 1 -18.5219 -7.95268 -11.6188
611 1 -4.60989 6.70429 2.43751
171 1 -2.90906 18.8523 17.3271
396 1 11.3057 20.2451 -12.2096
1198 1 0.80591 21.3819 2.17892
1707 1 13.4128 7.32899 3.82618
1255 1 -13.7597 7.02246 16.4583
935 1 13.5974 9.60818 1.69245
1841 1 16.4558 -4.86925 -9.84084
54 1 13.5882 8.0979 -11.1253
246 1 1.79632 8.42286 -25.0277
222 1 2.98379 8.49211 2.59157
475 1 3.95883 8.40102 16.978
1964 1 2.82613 7.51496 15.0624
1686 1 17.7521 9.0192 2.48653
1189 1 -10.0398 -6.08262 16.565
1366 1 17.5929 9.09213 4.16508
1219 1 5.59146 -3.96102 1.44204
880 1 5.27887 9.29219 -10.3693
551 1 5.03584 -6.09302 1.73128
1571 1 6.19252 -4.92767 16.7491
1638 1 8.84305 20.783 17.121
1285 1 20.6688 8.95786 2.33859
191 1 6.71916 7.86061 -10.7122
667 1 10.3172 6.83194 2.39744
1415 1 -2.5963 8.29819 1.85972
760 1 8.24616 7.62614 15.2437
1587 1 10.5648 -6.31673 17.1119
1350 1 -15.3439 8.54898 15.1306
195 1 0.825185 7.53258 16.9835
636 1 -0.482367 8.64645 15.3541
661 1 0.878205 23.251 3.83353
56 1 0.662845 24.7042 -11.1128
549 1 -12.2403 -3.80072 2.77796
733 1 15.6043 11.2572 -10.5885
1321 1 -11.5134 9.29937 16.945
1869 1 5.23524 23.9763 17.026
1364 1 18.0903 -3.92535 -10.436
652 1 2.82859 10.5436 -12.4445
1058 1 -7.85267 11.1221 15.2883
1810 1 5.06557 9.2418 15.9012
1331 1 -6.76834 -3.9763 3.07754
1297 1 6.01368 9.71221 2.4738
976 1 -7.01844 11.038 -11.2882
2001 1 7.31369 -18.1149 1.31989
1755 1 9.30042 36.6764 2.77299
1408 1 8.62964 10.6899 17.0825
1006 1 -17.5099 23.783 29.5747
37 1 -4.28871 9.39832 -12.034
878 1 12.0852 10.2933 15.1492
169 1 -2.40096 -2.53879 1.84646
1688 1 12.5684 9.45255 15.8168
1244 1 -0.249208 11.2273 2.94643
896 1 13.1342 -3.33893 14.715
509 1 26.4672 22.6298 -12.9043
76 1 12.0553 24.0015 2.85606
1124 1 0.114195 11.4464 28.7074
1067 1 0.0579901 12.8577 2.79381
1138 1 0.628152 -2.12151 -8.86352
828 1 1.62011 11.8675 3.9718
1302 1 15.8022 12.5145 3.14031
300 1 -9.57765 10.689 -10.8373
1328 1 2.78984 11.7765 3.74471
1613 1 17.644 25.3276 15.7026
943 1 -8.82583 -1.5872 -11.5501
857 1 16.4759 -16.1746 15.8472
515 1 5.34587 -0.733053 16.2032
253 1 -8.50942 10.4852 0.894207
334 1 5.63871 10.7447 2.50357
1931 1 -20.6758 11.7075 15.0974
710 1 6.49701 8.71344 0.712009
2016 1 21.7827 9.10297 30.5217
408 1 21.3614 -1.28284 -9.91071
1886 1 8.63528 25.4909 15.7858
1367 1 9.62909 12.8601 16.0276
366 1 -2.33623 10.8014 0.807299
1349 1 -2.79722 9.99227 15.0846
940 1 -2.2316 -3.90487 15.8898
1422 1 -2.61322 12.2828 14.8356
1424 1 25.0416 -1.41944 2.5011
1392 1 12.5378 11.8881 16.6131
573 1 25.3221 -16.0876 2.81389
2034 1 13.7831 26.4871 3.96438
1727 1 16.9352 -1.14817 3.39037
239 1 1.28293 13.2393 3.51799
1131 1 3.45205 -2.26075 -10.697
554 1 16.0394 -13.8176 3.28274
1290 1 -10.2024 -0.104891 3.22719
1538 1 3.40033 13.6761 29.457
1645 1 -9.49627 -0.652661 -10.9841
1171 1 19.0921 -0.557081 0.717014
1558 1 19.5561 -1.00301 15.1689
275 1 6.82576 12.2816 -14.1497
1055 1 4.91703 -2.3302 -10.6384
913 1 19.1033 0.0112224 15.3502
1125 1 7.56238 -1.03858 16.17
67 1 8.63445 12.6967 16.3328
982 1 10.2634 10.9496 1.60936
148 1 8.90974 12.1855 14.6743
1343 1 10.0161 14.5862 1.77144
1314 1 -2.57669 14.7078 1.36067
496 1 11.2944 13.6635 14.8626
1260 1 0.60007 12.108 15.7013
1273 1 -1.93168 -0.774301 1.84295
1226 1 27.1157 11.7501 3.91376
231 1 2.49049 28.4084 18.0311
1550 1 28.4596 0.0271151 5.20001
1336 1 -10.6039 13.7496 4.29009
1938 1 3.74328 14.4708 17.8818
249 1 1.268 14.7663 4.86136
978 1 16.8506 27.7547 5.28742
325 1 12.9184 -10.4994 5.34736
1066 1 18.272 -13.3882 3.49075
1247 1 3.01218 15.4009 18.5244
1961 1 5.04107 2.57467 15.8282
74 1 -7.69792 12.871 17.8809
1901 1 4.77884 15.2806 29.9536
558 1 7.17697 13.9815 16.2054
1031 1 -6.73436 1.34977 -11.0784
886 1 7.58419 15.1346 -10.0898
1874 1 6.9066 -12.8979 17.14
574 1 8.38407 0.976524 4.54187
1565 1 10.4579 0.535697 31.3417
1449 1 -3.78975 14.2311 2.7598
87 1 1.19014 15.1428 17.4768
81 1 11.1862 -0.177444 4.51603
1209 1 0.11383 -0.012221 3.52241
1405 1 13.7153 29.7618 -9.09366
458 1 -0.391897 30.0383 3.32465
1201 1 14.894 16.3491 -10.845
349 1 13.3507 3.74688 16.9574
1643 1 2.82645 -10.3321 3.53211
527 1 14.8413 -11.1537 4.0734
198 1 -10.5065 16.3608 2.11836
1835 1 -11.0626 2.67526 4.40573
428 1 3.31831 29.0963 3.75035
701 1 17.9478 1.92884 15.3176
981 1 29.83 14.9231 -7.10233
1108 1 18.6717 -11.7241 3.52958
2018 1 4.19231 15.007 17.1069
706 1 3.88065 16.1702 -10.7908
745 1 -5.94811 2.7423 17.3256
1960 1 -5.31214 16.3271 4.97082
1360 1 -5.88909 -11.8699 4.58668
235 1 -5.64585 15.7942 -10.8488
698 1 50.5329 28.5523 5.3403
1458 1 9.6456 15.6876 16.999
1514 1 9.94115 2.56203 18.0027
1363 1 -15.8568 -9.69127 4.83927
1476 1 -1.67006 16.5414 4.35599
718 1 -1.21822 17.8238 18.8029
1173 1 -1.23988 3.8295 2.74665
1948 1 26.4843 18.4651 30.965
522 1 0.389559 16.7678 17.481
1532 1 27.4663 4.86449 18.0814
319 1 27.1681 -9.30169 -8.38924
28 1 1.93567 1.92397 4.97231
602 1 2.54347 4.39092 3.17449
583 1 14.5037 3.80721 2.90433
1477 1 17.9426 16.8982 15.8558
790 1 4.07275 4.01249 -9.13268
1814 1 3.74691 17.5423 17.0589
99 1 4.56861 -10.7146 -23.7505
1149 1 3.5638 2.70973 3.97039
626 1 6.56608 3.36198 -10.7203
954 1 8.22015 17.2625 -9.43685
484 1 6.5144 2.31725 -12.6489
88 1 10.0833 2.71686 2.46164
696 1 9.23514 3.46026 4.7965
668 1 10.294 17.6258 3.26988
1281 1 -3.11945 -11.0648 3.46892
1624 1 -2.00337 -10.6934 16.9502
1486 1 8.95134 1.55557 17.6364
1576 1 -3.76079 4.65142 4.11268
1502 1 11.8661 32.2364 18.0453
10 1 12.2501 3.88732 -9.6198
1279 1 -1.92077 32.391 16.8657
1541 1 -0.166669 4.78361 2.74448
1596 1 14.6525 5.36005 4.03747
1320 1 -0.865624 5.49828 4.50071
928 1 0.500824 4.30769 17.329
145 1 3.16262 18.4329 17.6234
1098 1 15.3234 4.09945 4.33566
1041 1 -10.7663 -34.2842 2.49482
1513 1 2.86305 4.84799 29.7224
134 1 3.57952 19.3285 -11.3695
1020 1 5.19294 4.69379 4.92026
1654 1 5.95996 6.64551 -8.27983
446 1 17.9597 5.28568 -8.35659
744 1 5.93128 4.59201 17.8924
1863 1 21.3281 4.73837 31.3519
909 1 5.22519 19.1177 -9.56323
1053 1 23.4322 -8.1197 3.44501
1666 1 -5.32281 31.327 16.7813
498 1 8.75876 16.589 -10.7847
1577 1 -2.33089 5.99642 18.1352
433 1 -4.87603 19.6902 3.06343
890 1 -3.31109 -7.61602 4.17945
1918 1 10.6475 5.96964 2.90444
434 1 11.2755 4.07933 17.4563
1183 1 -14.5082 -7.52876 18.9457
502 1 14.6022 19.3507 2.97551
873 1 13.9677 19.7171 -9.15695
279 1 28.8427 -7.4488 17.5458
298 1 14.9617 7.78986 -9.43109
243 1 1.24059 -4.77552 -8.99208
1690 1 0.875552 6.85617 4.50151
1949 1 15.7834 6.91367 1.57969
587 1 1.52414 -9.09779 17.0938
53 1 30.3429 5.79459 18.1834
531 1 3.13733 7.71327 3.83166
1448 1 18.1321 -7.6517 4.50938
1382 1 4.99706 6.51804 -10.0403
1284 1 -8.4899 -5.04881 4.36662
1636 1 -9.67675 5.08517 4.38584
1795 1 -6.7637 6.81861 18.2691
118 1 21.9805 -7.67808 4.63311
1059 1 7.50699 6.10386 16.6988
1438 1 19.4218 19.9017 4.52962
1734 1 9.20325 20.162 4.15982
472 1 9.7047 6.12327 1.74352
137 1 23.8176 7.12592 4.43595
227 1 -2.29302 6.85351 17.1011
487 1 -2.87492 4.72769 -9.10197
1168 1 -2.38819 7.25333 -9.17125
142 1 15.9055 8.01003 17.0392
1697 1 -1.07058 7.29843 3.10898
1044 1 -1.11669 7.94613 15.7809
942 1 14.3196 -4.57228 2.40221
336 1 14.4302 21.0363 19.7648
1452 1 14.7656 10.382 4.79997
1400 1 2.21479 5.45245 16.6746
841 1 -25.0529 6.83911 -10.1129
1543 1 -12.1228 -3.15641 3.67627
1206 1 2.05477 8.40378 18.155
1243 1 4.21882 9.15407 5.23306
1885 1 3.1046 -5.39773 4.74377
1773 1 5.20335 -4.16403 5.27816
687 1 17.7076 8.14401 18.1693
648 1 18.9404 -5.84384 3.69469
1785 1 6.33294 7.95918 17.6459
1977 1 7.93685 8.04104 30.4811
488 1 -7.51856 9.2376 4.1475
946 1 -6.57693 7.0605 3.36124
812 1 -6.30377 -6.01371 4.15906
160 1 9.83964 6.57896 3.26537
944 1 9.57593 7.60794 2.72769
267 1 -4.57807 -5.00904 4.79218
196 1 -4.04858 8.26446 -11.7296
1604 1 9.395 21.5093 17.7062
1347 1 -1.38959 8.97451 4.48682
720 1 -1.94507 7.83809 17.0002
1391 1 11.486 6.16915 -11.2681
1579 1 13.8228 8.87195 3.30604
1036 1 -0.840151 8.43256 3.38064
1680 1 -12.9027 12.2332 17.1424
1251 1 0.549782 10.9281 17.2727
1016 1 16.0771 10.3032 16.3222
1009 1 16.489 10.5805 17.2845
1061 1 3.18356 -1.35843 4.61224
934 1 3.24896 9.47659 4.7444
532 1 16.6191 -2.287 4.80074
985 1 19.8613 -3.39199 3.72397
1437 1 22.3347 -5.26104 3.66606
1154 1 7.45413 24.4931 16.9499
848 1 -5.47715 -17.7386 32.4033
618 1 7.73367 10.481 4.75979
1591 1 8.78232 -5.14335 16.2073
429 1 21.7411 -3.80819 3.98316
564 1 -4.06246 8.52086 3.17035
987 1 9.76204 10.1301 -10.3638
77 1 10.2627 -4.58091 2.08383
779 1 9.15574 -3.32273 -23.0379
1847 1 10.2235 10.564 18.902
1566 1 11.1131 -5.48388 31.5999
1045 1 11.9415 8.56408 2.5677
358 1 -2.91463 -5.38871 16.6857
1872 1 -14.0397 9.05253 4.16402
172 1 -1.16319 9.81291 3.8186
731 1 10.6205 -4.25569 2.9875
1156 1 -14.7903 24.6625 -10.191
1099 1 11.827 -15.5021 3.78058
14 1 17.614 -2.18187 3.88678
627 1 4.77969 10.8104 4.14897
384 1 1.71293 11.1877 4.6196
1081 1 19.8064 25.3254 -8.73106
560 1 5.99394 25.5102 16.13
1256 1 -7.33289 -1.06221 3.17338
68 1 -8.68208 9.72653 4.1664
547 1 -6.79681 -2.87533 4.32159
285 1 23.1074 -15.2956 3.08452
2045 1 21.9684 11.7662 3.0157
1546 1 7.85944 -2.38924 17.8359
763 1 22.4171 -1.38355 -9.6207
595 1 36.6111 13.8285 18.4279
1112 1 -3.86832 -2.49184 3.28847
1958 1 -2.56863 12.2053 4.63424
2021 1 -17.0136 12.666 16.736
1972 1 24.5023 -3.13272 16.372
1370 1 -3.7387 -1.48471 4.2626
162 1 -0.9726 11.2407 -11.5094
1299 1 -1.0341 -2.63494 18.4202
61 1 1.01116 12.5319 4.51438
1062 1 1.63243 -0.882276 5.77366
1673 1 2.67883 -1.25214 5.94143
1345 1 4.8244 -14.4266 17.1438
1628 1 1.85176 0.794541 3.18494
804 1 4.88296 1.0587 18.086
2015 1 31.6157 12.2014 3.10542
846 1 19.0252 -1.9724 3.88413
166 1 -8.64176 -0.215832 17.9516
176 1 5.33345 26.3802 19.0082
1804 1 6.85471 -1.36092 18.0896
1207 1 6.20308 -0.0847578 30.1781
1843 1 18.7465 0.260288 16.2137
2041 1 19.9079 11.4296 17.2202
1850 1 6.83421 -13.9975 31.1207
351 1 8.57722 -0.322771 17.5216
1778 1 8.92364 27.382 2.86168
1288 1 7.7423 13.356 16.8132
1808 1 8.3477 -15.296 18.6548
557 1 9.26898 0.57165 -9.90864
92 1 10.467 13.1711 -12.2194
124 1 9.60348 -0.577769 -10.1389
1095 1 12.3456 12.7598 3.18366
1224 1 -2.89561 14.8163 3.20874
1747 1 10.2386 13.1056 4.41494
1455 1 -2.83453 13.4112 2.63098
1840 1 -2.46191 -0.905197 3.66739
1192 1 27.9133 12.8842 19.1753
1570 1 -0.51359 14.7346 3.96606
1357 1 -1.47472 12.7581 4.20192
1096 1 15.6539 0.102508 -9.22384
1753 1 0.404229 15.7658 3.64082
992 1 14.7051 3.12598 19.2594
1831 1 31.0173 1.1186 20.5069
767 1 2.25348 14.7717 5.40345
1076 1 -8.96174 0.142455 6.00965
1954 1 17.9555 1.05673 5.38838
389 1 19.3807 -13.0119 3.63983
911 1 21.1779 1.26038 19.7016
1917 1 5.68704 1.85381 4.27336
932 1 -6.37322 13.685 5.06356
1262 1 -5.55191 0.576459 19.1588
1798 1 7.74828 -11.5667 19.3354
216 1 8.61426 15.248 5.98913
1891 1 -4.74657 -0.730675 5.9769
238 1 9.06431 0.682768 21.2853
1277 1 7.65147 0.224682 17.6575
1174 1 11.4558 0.427353 17.4707
1663 1 23.8696 0.405666 -8.65515
793 1 11.077 1.09409 4.70033
1573 1 11.5214 1.08552 -6.94544
786 1 25.5641 -14.3433 5.16562
1339 1 25.4484 -13.2789 5.80917
343 1 26.4152 13.6569 18.048
1738 1 -0.645134 0.790521 18.8945
815 1 0.184772 1.36542 4.83488
1792 1 0.800108 31.009 18.2654
453 1 -10.3135 16.3236 5.1991
2048 1 16.5836 13.0615 20.6283
1028 1 0.995746 -11.9345 6.88189
1862 1 16.5801 27.6268 19.9801
1330 1 3.26875 1.29023 5.78287
699 1 4.58647 1.39712 6.51377
737 1 -10.6179 15.7044 34.1931
1104 1 18.0042 3.19051 -8.49329
1100 1 5.84537 1.80832 16.6989
1478 1 4.99877 16.3664 31.8495
691 1 6.90969 2.11484 5.01173
822 1 -20.7436 15.9907 3.90756
601 1 9.10254 2.26711 6.68396
553 1 6.56106 -12.3879 4.30843
1809 1 9.92761 -12.3621 4.25136
1003 1 9.96746 29.523 19.5467
117 1 -2.81063 2.14603 -21.9505
747 1 -1.60097 0.920357 4.54446
1011 1 -2.16665 16.601 -8.09556
1309 1 13.169 3.57709 18.0823
1854 1 38.2234 -25.4727 -7.16192
1129 1 11.7905 -12.2097 -8.06727
1893 1 0.0547159 2.62008 19.3765
1017 1 1.75184 30.7922 -10.0665
105 1 13.9471 3.73875 19.5291
971 1 1.6334 -9.70254 5.35278
766 1 0.966067 18.3345 4.88178
991 1 15.5903 16.6755 -8.54627
361 1 16.2127 15.9213 5.82867
192 1 16.6669 17.4389 -9.10626
1930 1 4.21003 3.1384 6.30375
1705 1 3.60939 17.575 6.86552
519 1 4.28098 1.93615 18.3115
390 1 6.12304 3.17412 4.22526
1353 1 -23.2993 -25.2949 5.8144
579 1 20.5224 3.96451 3.95446
617 1 6.94834 4.51272 -8.80907
589 1 5.95728 16.0741 -8.33903
1232 1 9.37223 29.8202 18.876
178 1 19.7815 3.39982 -7.8814
123 1 7.92089 -9.69443 5.13403
585 1 9.20615 5.03397 33.8959
2026 1 -4.68876 2.68121 17.7538
294 1 -4.75167 16.8768 19.7602
863 1 10.8949 16.5749 6.36688
1832 1 -4.53788 4.28943 19.4837
1789 1 -3.46013 16.7825 19.025
1984 1 10.8094 4.02949 5.98935
348 1 -1.90462 17.9521 5.78306
170 1 14.4569 4.74014 -7.62019
270 1 14.7106 -7.53609 -7.83241
278 1 1.94686 -22.2478 4.12255
628 1 2.16189 -10.3382 6.0399
1150 1 3.13656 17.3214 -8.00167
1245 1 15.3967 5.10011 19.5127
46 1 2.36578 -8.95485 -8.74146
387 1 3.35821 4.74339 5.16324
394 1 4.17775 4.10528 5.7309
318 1 18.9087 -9.83254 -8.1077
21 1 -7.59038 -9.6581 -8.60941
312 1 5.05077 6.01181 19.1465
154 1 7.10912 5.50563 -9.18311
655 1 9.00912 18.4466 -9.88791
377 1 36.1324 4.509 4.87515
1282 1 8.92193 -21.8859 -8.03576
1797 1 7.27578 -10.5959 4.83397
683 1 10.1102 3.67341 4.2073
1496 1 23.7777 5.77427 20.1927
1665 1 12.356 6.86364 4.27958
2035 1 -2.16069 6.17983 5.44226
1525 1 10.0369 5.53788 5.22109
637 1 -3.68894 4.16915 5.14408
697 1 27.7278 -8.25471 5.33976
51 1 -13.6396 18.9872 -6.69668
1075 1 15.2635 19.5325 4.94355
252 1 14.3559 7.79236 5.08753
84 1 15.2323 7.11475 5.21532
1607 1 16.6557 6.80226 33.4159
405 1 2.22575 21.0604 -9.28118
772 1 3.54938 6.11325 19.0712
194 1 -9.28383 -5.95083 19.6334
1920 1 18.1128 20.6843 18.6031
571 1 5.65694 7.71512 -8.7655
918 1 6.93655 21.4131 5.18641
707 1 7.91157 5.10825 -8.67499
1202 1 21.5889 6.67247 17.6444
662 1 8.5142 19.3314 20.7896
1838 1 8.36554 7.59061 -9.28374
1786 1 8.90958 20.5333 18.7516
1034 1 -5.76446 -7.72443 19.3307
352 1 25.7563 7.10817 -8.24672
906 1 -0.0664291 21.2483 7.80779
60 1 13.2649 7.05215 4.78581
825 1 12.3448 7.98163 4.20305
329 1 2.31071 22.7978 5.53567
2033 1 14.082 22.082 4.30193
1713 1 14.9295 -4.44865 -21.7511
1237 1 16.1545 35.7231 6.3006
1236 1 3.27007 20.5144 4.16936
1971 1 3.385 8.29358 -7.77671
922 1 3.3948 -6.40433 5.15031
460 1 6.27561 -6.1718 19.606
71 1 -8.67609 22.0799 -8.23554
109 1 18.0506 -3.95109 6.10826
52 1 6.32845 7.27246 7.10216
1423 1 -7.51457 8.9765 5.1532
1039 1 4.45736 8.60361 20.1402
1180 1 21.4681 7.0657 5.15251
1693 1 20.7197 8.52189 19.6146
624 1 -4.74595 8.26556 -7.53145
86 1 38.5172 -4.67484 4.80082
1996 1 -4.06281 21.3966 19.1278
1877 1 -2.83297 21.1976 19.1696
73 1 10.2073 21.9621 -9.10368
714 1 -2.00774 9.83478 18.1586
673 1 11.7482 8.19912 5.5102
136 1 11.2432 11.1477 -9.03388
1606 1 -0.190884 10.6326 17.9717
1728 1 13.2087 8.10111 18.3862
233 1 -0.558861 9.10519 -8.25523
177 1 -0.188585 -3.56202 3.37063
161 1 -13.4711 9.8593 5.86112
1159 1 -13.6898 -16.4645 19.0676
1934 1 -11.5348 -4.15648 -9.1754
1611 1 3.33498 -3.40208 19.0345
914 1 5.68131 -16.9239 -8.98707
62 1 19.0561 -2.13547 -7.71985
1989 1 -24.0934 9.37658 5.85952
1505 1 -9.99546 23.9227 -6.94488
1894 1 -8.40898 -3.40192 19.6048
1021 1 19.169 22.6528 -7.62348
220 1 18.0764 10.9205 5.90176
1134 1 7.29347 -18.742 3.5163
1074 1 7.02747 8.72829 -9.10169
315 1 19.3578 9.78756 6.76917
413 1 22.933 11.2514 4.7564
541 1 9.05835 -3.35707 5.36071
789 1 8.12321 -18.6767 4.50664
1312 1 9.0956 9.34886 17.6191
1142 1 -3.33548 -4.66604 3.95004
1103 1 25.343 -4.89282 3.69536
740 1 -2.79487 8.96067 19.7655
1447 1 11.141 9.92022 19.211
1008 1 12.9612 9.92745 4.73395
1235 1 11.9596 -4.42111 5.54384
927 1 -0.252361 12.1912 18.6692
1278 1 1.75307 25.4448 5.86172
1356 1 14.509 -2.80062 5.77376
1771 1 17.5767 12.6813 -8.38241
1940 1 17.2397 10.3614 4.29992
1191 1 17.624 11.1779 4.84329
432 1 18.1215 23.8937 5.02197
1650 1 5.08222 11.3294 18.6387
1833 1 6.94755 9.7575 18.4803
820 1 6.37807 9.88015 19.5159
1859 1 6.06288 12.5125 19.6452
1494 1 7.0955 11.862 16.7802
1845 1 -6.20052 11.6031 5.06059
584 1 9.50107 10.8662 -7.63293
250 1 22.0562 10.3063 -7.40781
1271 1 10.1525 11.9088 18.968
722 1 23.3284 12.5809 20.3621
1163 1 -3.69443 13.1718 -8.18801
1535 1 24.1829 10.1458 17.5961
260 1 -2.10095 -1.50581 5.665
1414 1 -2.05903 10.6348 3.76299
1997 1 -14.1319 11.985 20.8243
1265 1 10.191 11.0675 4.21411
158 1 -1.37019 -2.39591 5.6892
530 1 15.2908 0.514604 19.778
1073 1 14.6294 13.2428 -7.03491
749 1 1.89974 -1.39747 6.74936
107 1 17.6548 -0.863912 4.06775
467 1 4.08026 0.0016823 -8.85744
164 1 2.62873 -0.764457 4.07696
392 1 4.5348 12.1798 4.68764
444 1 -9.98445 -14.2881 6.22927
1306 1 -9.23203 13.2083 20.6011
2028 1 4.45078 11.9266 5.83874
1539 1 6.1889 -0.44227 5.06874
888 1 35.3058 -13.8765 6.10304
1047 1 19.7555 -2.86761 19.2292
1560 1 -8.29596 0.244609 5.19174
1819 1 6.69704 11.7102 19.5025
604 1 22.0652 13.1922 18.7916
1765 1 6.66448 13.4339 19.779
1307 1 8.36398 11.207 5.64317
1551 1 9.15452 -1.87013 5.90657
168 1 9.35578 -0.942496 4.85365
391 1 8.52459 -14.5461 6.90123
264 1 10.8604 11.7775 3.66863
1660 1 -2.93704 13.8895 5.96303
254 1 13.8049 12.6639 -7.22852
550 1 -0.472084 -14.1839 18.8336
257 1 0.32072 14.1013 -7.84084
380 1 15.7827 -13.8908 6.51725
19 1 1.37805 2.27965 5.9903
1533 1 14.2683 27.1149 22.3767
907 1 13.6819 -0.770867 7.48658
1677 1 -12.1738 14.9673 7.76206
702 1 29.9227 26.8874 -8.44636
514 1 2.66414 0.0910765 -5.17428
305 1 19.8793 0.222789 -9.32416
1266 1 4.82032 14.1686 7.01992
1378 1 20.2251 0.667436 19.1511
1892 1 5.50513 0.954897 19.8264
1197 1 6.42606 29.1565 6.35417
415 1 32.9003 13.4747 6.31245
948 1 6.89286 14.185 20.2705
1263 1 9.10119 13.9588 19.368
16 1 8.24573 1.41671 20.9197
1907 1 23.7503 29.4476 -6.48748
113 1 9.38899 13.1144 8.07018
1228 1 10.7301 1.17465 5.82602
40 1 -1.2681 28.9426 -6.44633
153 1 10.9351 16.6985 -9.23437
1848 1 12.6693 14.8611 6.09105
291 1 -4.35742 13.6372 6.78901
577 1 12.195 13.9217 6.92667
228 1 -0.595593 14.4637 -6.38981
642 1 14.7307 1.36438 -7.88706
1293 1 11.9 29.5722 6.46437
332 1 -12.4525 16.8276 -7.00291
578 1 0.0724501 15.2696 5.87537
1748 1 14.3488 15.1576 8.51929
765 1 2.36271 14.3657 21.2963
1528 1 2.97886 15.18 7.72277
2019 1 -8.69322 16.3276 20.8379
452 1 5.37454 15.7098 6.37897
456 1 3.46038 0.728036 8.71736
1509 1 3.45853 2.58366 -5.6781
277 1 5.48483 17.3892 7.18683
2037 1 19.7464 16.4665 20.5854
861 1 5.0303 1.80717 -22.0064
1919 1 20.4496 -10.2542 7.89375
1527 1 5.73731 14.7949 5.07766
262 1 6.86371 2.63925 -7.6931
1846 1 6.99055 14.9909 7.25597
1855 1 21.1378 15.7657 6.68473
1656 1 7.87663 3.13925 5.80624
723 1 9.04846 2.95248 8.19219
1440 1 9.77954 1.1313 6.31791
1267 1 8.31821 16.316 -6.2969
1619 1 -3.71947 1.1372 7.22739
1642 1 -3.20309 3.76382 -6.15182
1557 1 -1.70258 -11.4988 7.94825
1985 1 -14.5495 -11.6136 18.9475
778 1 0.895586 -11.452 18.6711