ITEM: TIMESTEP
90000
ITEM: NUMBER OF ATOMS
2048
ITEM: BOX BOUNDS pp pp pp
0.0000000000000000e+00 1.3679807573413575e+01
0.0000000000000000e+00 1.3679807573413575e+01
0.0000000000000000e+00 1.3679807573413575e+01
ITEM: ATOMS id type xu yu zu
896 1 1.23625 -0.405041 15.1699
1414 1 1.36318 14.5858 0.949686
1225 1 -0.834547 15.126 0.499963
931 1 0.546112 13.8193 0.79903
1053 1 17.4624 -11.2898 0.0496857
99 1 3.38542 1.98918 -12.6086
1029 1 5.35859 -11.5546 13.4024
699 1 17.9065 1.27032 0.0267049
800 1 6.40752 0.41995 0.305245
510 1 6.63754 13.017 0.231005
33 1 4.37736 0.869994 0.945703
985 1 19.048 1.16961 14.5656
1358 1 -5.97187 2.45505 0.349157
718 1 7.06 13.9636 15.9567
1009 1 8.85117 14.5083 15.5275
1044 1 7.49707 -0.664771 13.3054
227 1 -4.5468 13.0912 13.8034
221 1 9.75459 14.1676 0.116851
1734 1 10.0146 14.0939 14.8111
1564 1 10.9095 0.303685 13.7683
966 1 -0.980958 13.0041 2.10815
336 1 11.3178 15.2489 15.2011
71 1 -1.93091 14.6481 0.40032
4 1 -14.0703 13.4739 0.530327
436 1 -0.499803 14.3735 1.41258
1772 1 -1.56685 0.916295 1.90676
1482 1 -1.2659 0.327371 0.857844
1880 1 0.365836 1.21153 0.862425
603 1 14.8642 1.89927 0.985125
212 1 1.58555 3.41002 -13.6015
479 1 1.89647 15.736 1.70377
617 1 3.78809 3.2556 -0.535274
1948 1 15.418 15.1824 27.5195
520 1 2.42664 -11.1519 0.94284
77 1 2.86774 3.54609 0.968412
1157 1 2.25519 2.07956 -0.634612
703 1 17.2871 -11.4454 2.37219
653 1 -9.61147 3.26479 0.585523
87 1 4.50664 15.6104 14.423
1209 1 7.08264 3.12705 1.00626
926 1 21.0273 14.8457 1.18939
1064 1 7.44411 2.36571 1.45702
695 1 19.2168 2.3155 0.914657
808 1 8.25147 2.58956 2.14053
786 1 22.6513 -13.3465 -14.1739
806 1 -3.81452 0.899411 2.01279
1621 1 -5.31835 -12.0552 14.9209
1499 1 37.9646 1.14704 14.4204
562 1 10.124 -10.412 -0.387237
1990 1 11.1162 1.99137 14.3101
1287 1 -1.1857 2.92964 1.31847
845 1 11.2758 15.6921 2.55886
176 1 -2.0902 16.7697 3.47721
470 1 9.95968 2.52213 1.07283
102 1 -1.07526 17.4669 -11.8945
256 1 12.16 17.2201 -0.764316
93 1 26.4207 15.8235 2.03388
1349 1 -13.6448 1.70439 15.2802
901 1 13.3438 19.8208 -12.6031
2013 1 14.1398 16.8579 -0.00502668
772 1 -0.189415 3.88644 14.4495
567 1 -0.739709 3.02055 -0.353797
666 1 1.99226 4.3984 -11.6094
1323 1 0.598901 5.0961 0.831491
1399 1 18.1597 4.64936 14.1743
1534 1 3.32444 18.0045 0.0771772
1051 1 31.9869 5.70356 13.7718
799 1 4.90197 3.83959 0.997407
1103 1 20.537 4.12923 0.851517
1152 1 7.96722 3.38295 13.9465
285 1 21.324 4.94047 1.34839
483 1 6.85633 3.0672 -0.743985
1965 1 8.64953 17.0087 15.3523
1783 1 22.7016 3.90015 13.9055
106 1 7.63952 4.55176 0.25637
2007 1 -4.75291 2.85921 14.4607
614 1 9.66524 2.77462 15.9056
741 1 -1.38826 17.4438 14.3368
1971 1 10.8068 3.20895 1.50727
1976 1 13.6504 3.9031 13.0964
1573 1 -0.334869 5.08245 1.31211
1877 1 0.571025 2.9112 14.6602
1279 1 -1.31464 31.8309 -0.0674547
1237 1 0.03279 18.4204 0.125793
1997 1 0.522828 5.63152 15.4562
404 1 -2.09735 7.07572 14.1579
1197 1 13.5642 17.7908 15.4653
1077 1 14.4008 -8.50844 -0.598896
14 1 3.11019 -6.87121 0.343968
810 1 1.45131 5.02989 1.44133
1623 1 15.6592 -7.55635 14.0476
1607 1 4.08278 6.53807 27.342
209 1 16.4723 18.7707 -13.1639
1055 1 17.5803 -8.51513 -0.526139
82 1 3.52285 -7.86905 0.40401
1180 1 19.8612 5.87579 13.9583
643 1 -7.0903 6.39975 -0.612457
429 1 5.2765 4.91799 -0.453252
730 1 19.1429 19.4103 -1.33178
820 1 8.29418 6.05309 15.1312
1724 1 20.3447 20.5732 14.0577
1769 1 7.61862 30.7226 15.543
518 1 10.05 -9.73155 -1.11859
596 1 -5.33733 17.8258 1.15878
144 1 -4.88698 5.00861 -0.212376
996 1 -2.44365 17.534 13.0844
1289 1 -3.27739 -9.35403 0.00256478
776 1 10.1459 5.69584 14.8467
571 1 11.5323 5.64042 0.44407
2011 1 12.3418 18.3577 14.6034
234 1 10.6089 4.6086 1.21046
1000 1 -1.18672 19.218 13.797
1624 1 13.4075 -6.31233 14.1438
1004 1 0.60958 20.849 14.5963
39 1 1.56468 6.21358 2.29667
717 1 15.4007 20.7381 12.6118
11 1 3.3922 -6.15256 2.36666
1075 1 3.76389 20.9156 -0.75392
1842 1 5.10537 5.86208 15.4082
763 1 18.3874 7.4831 -0.204852
194 1 -8.38853 6.3034 13.3658
1192 1 20.2871 7.46492 12.6174
531 1 6.64278 5.26042 1.02379
2044 1 8.04753 19.1236 2.284
244 1 -6.28073 8.3535 1.59693
1617 1 7.30528 -7.42308 14.5307
1368 1 23.3264 4.83602 14.1928
111 1 7.82661 7.24882 -11.816
573 1 23.3832 -7.12046 15.2536
918 1 9.9815 17.359 0.817348
1398 1 8.78257 7.05628 15.3189
353 1 11.1736 6.36103 1.22627
62 1 11.439 5.45233 1.84716
258 1 13.4286 8.51669 -12.9176
651 1 -0.291374 7.18189 1.54568
1339 1 12.4358 -6.21567 13.4009
1631 1 15.424 8.43744 0.72478
1058 1 2.0744 7.37243 13.4846
1149 1 0.728268 9.17811 0.746305
438 1 14.5269 8.03155 0.297998
645 1 3.08951 -5.19148 -0.134116
1980 1 15.4348 7.31948 14.6216
92 1 16.6183 8.70459 -12.4503
1929 1 1.59284 9.61802 0.277507
1844 1 4.30354 -5.17795 13.8656
1448 1 19.4244 -4.23379 14.239
1341 1 18.9869 6.61098 0.751191
1554 1 19.5702 -6.34213 13.3075
1408 1 7.5758 7.27002 13.6928
818 1 7.84041 9.33119 0.0745779
1854 1 34.1554 -18.2036 1.16416
378 1 19.9138 7.84135 0.735718
927 1 8.42517 7.80867 14.7616
1752 1 6.27071 -4.18122 15.6158
1281 1 -4.22045 -5.47244 0.0489666
1921 1 -2.98061 7.67554 13.729
701 1 24.6834 7.5405 15.0035
1685 1 11.1242 21.883 16.8553
1206 1 11.189 8.82031 14.1141
321 1 -0.13926 -5.32561 -0.315843
1843 1 12.5005 10.0582 15.3194
1710 1 12.4692 -4.91338 13.6862
1540 1 0.225089 -3.62737 14.6777
1177 1 14.5062 10.9905 13.1503
1390 1 28.3536 8.95818 13.4064
802 1 1.2013 24.0391 15.0314
1511 1 15.6768 24.3528 -0.0952565
1687 1 3.17791 10.3484 27.5441
906 1 -11.0173 23.3381 1.41006
1774 1 3.61998 22.9514 14.3275
348 1 4.03463 8.54594 1.22447
63 1 29.225 -3.57065 2.2571
950 1 7.07289 10.0406 -11.9056
1753 1 8.15504 10.3169 1.28325
1249 1 5.45278 24.7256 1.44021
1730 1 7.62306 -5.55084 14.2319
1629 1 10.597 -5.17473 15.4645
595 1 24.0463 9.75732 16.2936
1109 1 9.40224 -5.57174 1.40172
2021 1 -3.34651 9.52054 15.0788
1428 1 10.0496 10.4467 1.45753
379 1 -2.65073 9.06065 2.58262
1128 1 13.47 -4.32014 13.7258
498 1 12.6907 22.9895 3.2099
724 1 -2.64307 9.7783 12.4328
714 1 0.446036 11.2647 15.0202
1711 1 14.7769 11.112 14.2036
1317 1 1.09362 -1.33903 14.8316
709 1 0.352045 11.9342 0.58595
1284 1 2.10064 -2.46504 2.43788
1025 1 0.122818 10.8478 0.436219
560 1 2.6551 10.933 14.7577
1003 1 13.9882 10.6647 15.9034
874 1 18.5129 10.8011 -0.550298
1412 1 2.5138 12.8039 14.0373
1619 1 3.26555 -1.52114 0.819434
1797 1 17.3545 -2.52537 15.3798
319 1 18.0225 -3.23945 0.293298
1684 1 3.78586 -3.00084 13.1038
24 1 7.11241 -2.83238 1.1956
1154 1 3.65604 11.2296 14.3269
939 1 6.9329 11.6517 1.83114
1033 1 9.23026 11.0571 0.201956
1429 1 7.90339 -2.41027 1.832
1300 1 9.43381 -2.51514 1.2312
1095 1 10.5572 11.7672 13.5847
1875 1 22.63 -4.03737 0.803901
1460 1 23.3735 8.88987 15.8578
1105 1 10.6492 -3.05494 -0.351498
1018 1 11.7443 11.0208 13.2408
1861 1 12.8894 10.966 15.795
871 1 -0.892923 11.8042 1.38016
7 1 14.1622 13.0104 0.172108
1785 1 14.3143 12.4163 12.7083
1221 1 4.09453 13.6227 0.42916
1804 1 2.2956 1.35316 14.7585
392 1 2.48914 14.1348 0.384947
1626 1 17.6902 -13.6725 15.299
622 1 18.6143 13.6643 1.18517
757 1 4.95758 12.9535 -0.0700349
1559 1 6.23714 0.635933 15.2801
737 1 -5.72715 12.5286 15.314
1983 1 5.49163 -1.27224 1.57019
1525 1 7.93229 14.0088 14.9567
46 1 5.81864 -0.750783 0.800699
1532 1 8.09375 13.7283 13.818
1563 1 22.1133 -16.0514 0.867258
267 1 -4.05989 -1.75372 0.339017
822 1 -3.94734 13.0041 1.19317
935 1 21.6866 12.8156 0.669314
780 1 9.71547 -1.24771 -1.65639
1364 1 10.6816 -1.03097 0.555969
10 1 12.2921 12.1387 0.355677
644 1 -2.28982 -1.74466 14.4374
1150 1 10.9656 11.6978 1.71025
1435 1 -3.1374 13.3508 1.67561
2041 1 11.6784 -0.153128 15.0781
1350 1 -13.5898 -0.173615 15.4836
1355 1 1.53526 -0.552244 16.6989
1700 1 1.70005 1.00175 29.5584
675 1 3.48575 17.3987 -10.3802
859 1 16.7864 0.302776 15.7041
979 1 18.6107 15.3638 15.3416
1012 1 4.16969 15.3868 3.10855
785 1 17.496 -12.3634 1.82087
650 1 3.34367 14.4272 0.976695
1179 1 5.18611 0.674002 -11.7281
707 1 6.18771 14.4888 2.64652
475 1 6.26323 1.63399 14.7792
636 1 7.30443 16.3143 2.53837
1541 1 8.32322 -0.209104 2.21678
1600 1 7.89125 0.542641 16.5605
1641 1 9.04092 0.602281 14.5636
204 1 -4.78241 12.301 0.898603
1961 1 8.7119 -0.363427 15.0311
1896 1 8.83438 -0.0668887 16.9367
942 1 8.95697 1.66542 3.79547
743 1 -4.35394 14.4111 3.87139
1608 1 -1.68327 0.0938579 16.3513
302 1 -2.6093 0.684926 2.23218
359 1 11.2946 -0.700823 2.27405
1583 1 0.156176 14.4456 16.1586
242 1 12.5445 -0.875643 -12.6705
1039 1 13.6792 2.02923 16.3937
1695 1 14.4766 0.840652 29.1135
195 1 -12.7686 3.75913 1.718
620 1 14.6536 2.34774 15.9337
1933 1 2.01915 3.35822 15.1736
1640 1 15.808 2.77828 2.86927
36 1 2.94955 2.76083 1.80757
112 1 2.84283 1.41199 1.95089
839 1 5.05815 3.5146 2.12727
2038 1 5.9255 15.3204 15.8247
162 1 6.20487 2.58889 -11.8409
1136 1 5.65703 4.35009 2.20475
1155 1 7.99955 1.48506 3.21265
1841 1 9.03225 1.86242 2.13748
1357 1 9.57527 15.1456 0.943714
350 1 23.9703 -11.8933 2.05524
779 1 7.93378 0.714229 -9.50713
1568 1 8.81185 1.00063 16.5788
1252 1 -1.96871 16.1685 15.3951
1814 1 9.06431 2.7829 16.7183
602 1 9.67981 1.86181 3.07971
133 1 -3.10849 16.7398 4.18847
219 1 12.8537 16.0513 3.4299
447 1 25.8871 2.67141 2.65632
310 1 10.7624 16.7477 5.22362
248 1 13.542 16.6537 1.8142
432 1 0.213132 17.4155 2.7267
1158 1 28.7871 3.79061 2.78278
1346 1 1.06883 -9.48797 0.453812
805 1 16.4675 3.63611 2.44507
1698 1 -9.97725 4.62465 15.7348
1030 1 4.41976 2.51686 1.58983
1508 1 5.448 6.07522 3.91161
492 1 4.27333 32.7846 2.49601
1315 1 -10.0675 4.34326 1.03217
1816 1 19.6597 5.36843 1.82703
291 1 -7.87403 4.48213 1.11345
1551 1 6.71818 4.59901 15.5136
356 1 7.11438 3.69432 13.6206
1727 1 7.98977 3.13156 4.68203
245 1 7.07498 17.4758 3.75694
187 1 8.52084 3.58778 2.70701
105 1 8.00789 4.3415 3.46297
1834 1 -4.70781 -9.18158 30.644
997 1 11.1102 30.7018 2.58547
1312 1 10.034 3.06899 17.0342
604 1 9.9253 3.86499 16.3872
1071 1 26.6286 3.43301 16.5548
382 1 13.1626 4.46752 3.32792
1969 1 12.6197 4.55084 16.057
1543 1 -0.137899 -8.31413 2.59115
1596 1 14.9167 7.9792 15.139
1639 1 14.5805 5.89348 16.7601
413 1 15.7291 4.29759 0.842321
756 1 2.3393 20.1932 1.27524
1514 1 2.90373 5.41206 1.49952
337 1 0.709758 18.2688 -11.3459
1782 1 4.0126 19.161 14.9728
1646 1 4.10977 -7.13347 -12.6416
748 1 -8.22896 18.9786 0.628716
1777 1 18.919 19.8855 16.5611
813 1 -6.56475 6.68239 2.75284
1394 1 7.1284 -8.86792 17.4065
1130 1 8.39228 5.40775 3.44388
1805 1 20.7883 5.164 2.74832
274 1 6.32664 -7.36987 -12.4003
702 1 21.3127 32.9224 4.29511
893 1 21.6347 -7.29791 3.3854
252 1 8.67422 19.5666 4.44662
1028 1 -6.20274 3.99282 16.3674
229 1 -4.34365 18.0912 -12.317
1588 1 -3.66886 -8.58421 3.2479
401 1 8.75983 18.2907 2.21853
117 1 9.45948 5.64547 -11.0116
1818 1 10.8324 4.15835 15.7955
504 1 27.0434 6.39685 2.50851
1728 1 11.8119 4.37052 15.4561
1451 1 12.4422 5.58717 2.31787
1112 1 0.46803 4.67153 3.3238
1397 1 12.6158 5.76801 17.0074
1644 1 14.3025 6.59568 15.7877
198 1 -11.7231 20.4814 3.23478
108 1 2.38832 7.01071 15.8278
1365 1 14.3124 7.39004 3.04038
627 1 3.26148 7.11699 15.0776
1042 1 2.65706 -5.88213 0.660959
1272 1 3.39836 6.27724 2.00175
697 1 17.9884 6.61292 2.81306
1440 1 19.0118 8.25389 1.6218
471 1 5.87188 6.52378 -11.5252
999 1 6.83441 7.4189 1.52534
1190 1 7.0307 5.81793 15.4876
454 1 -4.06174 20.4072 2.69183
1832 1 -4.54088 6.28202 30.947
782 1 9.11796 5.49091 15.3518
367 1 9.97347 7.41122 0.858481
848 1 9.06122 7.82942 16.0354
249 1 9.99361 21.116 2.05658
1691 1 -3.62247 4.84507 2.11878
728 1 10.5068 19.6628 2.38804
113 1 13.1244 8.69604 16.0406
1957 1 -1.29695 6.81375 2.31176
1882 1 26.5367 8.06191 15.1404
41 1 -0.876193 -6.60616 3.3354
1258 1 -13.9934 9.81442 2.61126
1439 1 27.0999 9.41068 15.316
1958 1 -1.2607 9.01993 14.7888
1699 1 0.270853 21.7872 1.70571
309 1 14.8669 -5.00383 2.33277
770 1 0.72958 -4.05842 15.5964
259 1 -12.0457 9.5082 -10.5504
317 1 0.990318 -5.39021 3.40999
1283 1 4.34967 -5.74377 2.09929
1222 1 5.35009 8.48063 14.1481
152 1 4.45658 7.59321 0.941309
109 1 19.6988 -6.05252 2.5485
2040 1 6.35542 8.39785 15.5217
1845 1 6.62908 10.0338 16.6339
1263 1 7.76498 9.33281 1.6218
1823 1 8.6495 22.593 15.1934
1839 1 10.6959 -6.7525 16.8632
1184 1 9.30883 -6.01758 3.50903
418 1 10.1703 8.16686 16.4994
1453 1 -4.66505 10.0584 3.39663
1630 1 25.7453 7.78943 2.11472
1175 1 11.3735 7.05415 2.23012
658 1 -2.8155 6.69837 4.1501
1817 1 13.049 -4.85146 4.12143
1226 1 11.4851 8.84529 1.36768
538 1 0.371752 22.3299 4.75839
923 1 14.3365 9.92121 16.7205
54 1 14.7384 11.52 -11.3366
853 1 15.3246 -4.3157 1.39389
1345 1 1.36684 -3.27157 17.6004
210 1 16.9429 8.63754 -11.4236
1713 1 16.4886 -4.51796 -9.99336
1340 1 5.75818 7.3003 28.8728
611 1 4.29173 8.98859 2.70887
1205 1 4.46769 10.6605 15.1573
1492 1 18.4637 -4.124 14.5898
605 1 6.3042 10.1668 1.01302
307 1 7.26228 -2.73954 16.437
385 1 -5.9594 23.6055 3.16097
1802 1 11.4968 9.99464 15.3092
547 1 -5.10703 -4.34858 2.74632
1530 1 10.0165 22.2998 3.8779
533 1 11.7129 -4.73029 3.52999
225 1 -15.046 -5.49921 3.14727
888 1 25.7407 -4.78947 2.36326
398 1 -1.85373 11.0976 2.22316
1863 1 13.6995 -1.76679 29.5575
1632 1 14.094 -3.11696 4.44999
439 1 2.53031 11.8491 1.54059
1590 1 1.31103 -2.96856 2.93924
1023 1 15.3259 25.0407 1.42399
1247 1 17.1289 10.17 14.8219
593 1 2.90637 -0.950069 1.96631
1988 1 4.80595 11.0715 16.0492
1920 1 18.3139 11.7699 15.4371
1883 1 17.4564 10.3507 16.2146
1738 1 5.6625 10.2692 16.4172
597 1 19.9244 -1.87018 1.02347
648 1 5.92639 -2.00213 2.21115
1720 1 6.97712 12.8038 2.28348
823 1 8.37427 10.7492 2.98472
1704 1 6.43679 -2.91669 15.7882
2046 1 8.9096 12.642 16.0979
868 1 -4.72337 -1.88076 15.5541
1509 1 9.09039 9.83205 1.85829
1622 1 -2.98799 9.44468 17.2721
860 1 10.9085 10.718 1.9977
334 1 -1.4591 10.8197 3.1466
351 1 11.9434 -3.81734 2.73412
272 1 -1.31113 -3.63905 0.693232
1087 1 13.0856 10.7489 14.7891
696 1 12.5007 -1.75591 2.48685
2023 1 -0.510363 10.4614 3.46109
316 1 13.763 -1.05845 -12.3856
40 1 -0.447691 12.4969 -1.09961
1385 1 0.821814 -1.01129 2.1703
1452 1 16.9715 13.1922 1.03457
1977 1 1.5191 13.6142 27.8546
1515 1 2.02691 13.499 2.24211
1198 1 2.24081 27.548 1.31596
284 1 18.2864 -13.2892 2.85447
1591 1 2.8187 -2.99191 2.07035
1299 1 3.63567 -0.39583 16.2407
1405 1 17.5501 12.5794 1.68641
2016 1 5.51395 13.6302 16.4313
1576 1 4.55956 12.5702 14.5333
216 1 7.00881 13.6583 1.09092
1680 1 -7.6545 13.3431 15.5083
1259 1 7.88184 12.9014 2.95568
472 1 8.47063 11.7192 3.10714
1286 1 8.64079 -15.3163 27.2092
1251 1 -3.45964 12.4879 16.0284
928 1 -4.18389 -0.0657289 15.7243
1375 1 10.1167 -15.343 1.29628
851 1 11.8468 12.317 1.66002
1998 1 -2.52147 1.11625 16.9553
659 1 -0.37744 26.1398 0.122776
638 1 27.105 -1.10614 2.97327
179 1 14.6386 12.3149 3.2937
1466 1 14.0807 -0.352413 17.0768
238 1 15.1811 1.20568 3.40259
758 1 14.583 13.6644 2.41681
1670 1 0.690061 14.3997 3.74012
1510 1 16.9067 15.0254 3.64357
940 1 -11.1074 1.71677 2.87784
1278 1 2.57016 14.31 2.98971
734 1 3.85481 1.90869 4.2578
811 1 6.17642 -14.1207 3.51251
691 1 4.09893 0.836811 3.76857
876 1 6.87261 29.2692 4.69628
575 1 7.39383 2.57549 19.0962
458 1 -7.53119 15.0288 3.8829
1586 1 -6.37004 -0.167183 18.702
891 1 20.944 12.4961 17.966
657 1 -5.88397 13.3132 3.89703
363 1 8.35104 0.153346 5.33943
951 1 -4.0902 13.0199 16.6712
1454 1 9.92947 13.6135 17.465
890 1 -3.71352 0.381083 2.90883
255 1 11.4901 2.51975 4.66048
1123 1 -3.40246 1.41632 -9.70689
646 1 -0.46932 -0.00550075 16.4163
19 1 -0.612978 0.577618 4.06685
710 1 0.670551 16.6053 4.41287
3 1 -0.634824 -0.504935 3.75326
271 1 -0.090427 1.32013 -10.1434
1295 1 14.5728 2.16485 17.0355
1744 1 0.0886819 2.81212 17.218
1096 1 18.0034 2.93213 2.82507
1223 1 3.851 3.20735 4.24917
142 1 2.56356 2.98818 3.864
1939 1 5.14156 1.31524 16.9657
86 1 34.8665 -12.1315 2.30147
754 1 18.6861 15.9552 -11.1252
344 1 17.8516 -9.63395 4.65633
580 1 4.78413 15.8648 3.80834
506 1 6.01412 16.7245 2.78548
1185 1 -7.29128 2.94468 4.56543
753 1 6.61201 17.3723 2.20748
640 1 20.2733 -11.8145 16.6266
970 1 6.81017 2.68456 3.65123
1947 1 7.8635 1.87944 18.0519
1015 1 -5.37598 14.9444 5.03901
38 1 8.75724 3.38377 -8.08182
1932 1 10.8262 2.24221 17.1729
126 1 22.3754 2.58408 4.16019
1943 1 -4.47672 0.579801 19.329
80 1 -4.4213 15.163 4.73156
1531 1 12.6945 1.34575 2.81513
1692 1 12.6438 16.5928 18.765
815 1 -1.92472 1.88597 3.44755
1347 1 -0.884831 1.41357 4.63622
1116 1 -1.72039 4.8187 3.57771
1648 1 15.2179 5.10914 16.5267
720 1 2.19005 4.36225 4.8287
446 1 15.7072 3.04763 -8.8062
1127 1 -10.1031 3.5232 1.69298
375 1 16.8065 4.48263 4.39632
1032 1 -11.2727 4.13193 3.44002
693 1 3.9781 -9.04047 -10.2483
1689 1 20.0759 5.88494 16.4204
1266 1 4.71846 4.52734 2.69108
704 1 19.2546 5.23039 2.71133
879 1 4.88708 4.88562 1.43739
425 1 6.3961 4.38749 -10.6679
417 1 -8.17652 18.1251 3.46129
2028 1 5.84079 17.1745 3.71063
660 1 8.25415 4.74788 -9.31792
854 1 7.80414 2.86732 3.60531
1065 1 -4.70638 3.74007 4.46172
1313 1 -3.97427 16.2422 5.19851
488 1 -1.62114 17.4302 5.27356
1615 1 -2.3668 4.86556 16.4117
788 1 9.68663 4.45538 4.24467
84 1 14.9384 4.17014 3.70975
1528 1 -1.15489 17.8733 17.842
1835 1 -0.819335 3.10134 4.10318
773 1 13.8974 3.75452 3.98158
766 1 12.9314 18.8297 4.12509
157 1 18.2336 5.55013 3.462
1392 1 3.00984 4.8966 16.477
205 1 -11.0909 19.9841 3.87381
1359 1 2.45982 5.89188 16.4032
661 1 3.59822 19.478 3.26363
1457 1 4.7234 20.6329 15.3708
910 1 6.28416 4.20762 -9.13058
952 1 6.63882 6.65162 -8.8454
1637 1 7.74605 6.88625 4.71191
452 1 7.92915 19.6238 5.41936
1035 1 -4.00703 5.51149 4.18713
1601 1 -3.87751 5.03293 18.8415
70 1 -2.89164 4.69195 4.65383
1847 1 10.5532 5.75119 18.3489
1002 1 11.918 17.5974 16.6177
193 1 -2.7415 5.22428 -10.0003
1627 1 10.705 -9.65061 3.46797
1749 1 12.0496 18.8699 4.57344
305 1 12.7032 6.0437 -8.64053
1904 1 -1.35988 19.144 19.6718
509 1 14.1618 20.3824 3.82986
1981 1 11.7364 7.20537 16.909
1746 1 14.1782 5.60247 5.23651
1771 1 14.0104 19.4612 -9.47617
1775 1 15.6629 8.33427 16.9029
852 1 -12.1559 7.63933 2.41452
1320 1 3.1365 6.749 3.06499
27 1 2.99133 -5.48563 -10.4547
1862 1 19.7959 20.455 16.8695
1950 1 30.979 -5.88196 17.8114
223 1 4.64524 21.8934 -9.04013
1430 1 22.2499 19.9952 2.41089
1571 1 6.55599 -8.21729 18.528
698 1 34.5744 21.2616 3.42582
751 1 20.4 6.34961 3.75799
1089 1 -5.6531 7.66584 17.7154
1410 1 8.80493 6.97865 4.23642
1982 1 8.85843 6.67999 19.0799
1495 1 11.429 19.4042 -8.27293
1985 1 -3.33525 6.04621 17.2094
1754 1 11.9409 20.266 5.8222
275 1 13.1132 7.62859 2.45999
246 1 -2.03285 19.8797 -10.8115
682 1 0.282697 6.65969 4.83459
1013 1 13.5711 20.1814 5.83817
882 1 13.8798 8.89201 3.18062
1276 1 0.133718 -5.84148 -9.77132
58 1 14.8124 -6.06342 -8.94421
218 1 2.13399 9.72106 5.5206
426 1 1.46499 21.2183 3.70226
866 1 -11.5093 -4.75934 2.30007
581 1 5.02656 7.32545 16.3162
386 1 -10.9198 -5.32689 4.29526
1017 1 3.85236 22.477 5.19595
332 1 4.93803 7.40619 3.62508
1516 1 5.17285 8.896 3.73025
1113 1 5.20029 22.0074 16.4176
554 1 20.9124 -6.03356 2.45822
1553 1 5.99852 -4.44115 2.9575
2047 1 7.53809 22.2382 16.9923
264 1 8.05832 8.49988 2.42094
676 1 -6.57772 22.7285 16.0028
290 1 -3.32275 7.61224 17.6947
1215 1 21.9031 11.5433 4.96036
371 1 -5.0272 8.59607 3.41367
783 1 9.90737 -6.95349 -9.15282
1911 1 23.2711 9.26956 16.9107
484 1 -2.76309 6.72312 5.25761
1352 1 -1.81109 6.55469 4.66986
917 1 11.6102 -6.06878 4.51398
742 1 -1.86664 7.71373 -8.2386
678 1 12.6266 7.7047 18.0646
430 1 0.101718 21.2945 4.9243
844 1 -1.001 -4.32032 18.7007
545 1 0.971758 9.34079 4.03487
1477 1 14.7885 9.91202 18.768
933 1 2.00244 9.4809 4.18699
1811 1 2.95938 -3.51475 3.99098
2014 1 15.9411 10.2854 16.9384
1889 1 4.01623 21.5624 16.8164
949 1 3.83491 8.79243 4.04065
1828 1 3.69904 9.63169 3.3345
1978 1 19.0834 -3.62527 1.60529
1080 1 3.77959 -2.53344 18.0284
937 1 5.20755 9.40138 2.23693
1517 1 5.87266 8.90387 4.55941
934 1 8.16985 10.6278 3.95895
1261 1 9.14483 9.20741 4.12903
1296 1 8.06616 -3.54941 29.5968
684 1 9.90116 24.3743 4.9335
1830 1 11.042 -5.09207 17.8243
1396 1 11.4008 8.67353 19.0991
1959 1 -2.12396 23.8813 3.64106
428 1 -0.454564 11.4627 3.00134
1789 1 -1.66351 8.5841 18.0494
1391 1 12.9204 8.24128 -8.46421
1360 1 0.932753 -1.93804 4.14295
1796 1 0.0486048 9.64103 3.97541
456 1 1.96251 10.5075 4.87339
17 1 2.06033 -1.44969 3.6176
2026 1 1.91674 -2.40717 17.2721
370 1 17.9911 10.9804 3.38102
1115 1 2.98939 -2.70499 17.014
956 1 2.79848 23.3203 2.68555
1001 1 4.17485 9.6785 1.66896
1234 1 5.35929 11.5511 3.25333
345 1 18.4994 9.81967 3.61388
1849 1 6.28269 -2.70919 3.27632
1099 1 19.6362 -2.74584 4.32066
895 1 20.932 -2.41748 3.78376
449 1 6.84065 9.36362 17.4301
515 1 -5.63019 -1.7369 17.6431
1757 1 10.8191 -3.16913 3.08274
1406 1 24.3237 12.3722 3.34756
2009 1 -4.20591 11.0311 3.33984
1169 1 10.5341 11.1039 0.763841
1891 1 -1.38719 11.7718 3.54809
621 1 11.4363 -1.51627 2.74768
320 1 -2.46942 12.1689 4.38729
519 1 -0.602698 -3.27287 4.58275
1800 1 -0.394544 -15.9897 17.9701
1141 1 14.094 10.9667 3.53139
435 1 2.17207 12.8367 1.33179
59 1 2.58091 13.3697 -10.1011
1542 1 1.89319 -1.47657 2.32857
526 1 3.15975 0.249825 4.09002
1348 1 4.70552 -0.270977 3.53294
974 1 3.51797 11.7403 2.44497
1935 1 16.389 12.0817 16.5702
153 1 5.69459 12.6492 -10.9958
1200 1 5.42555 -1.26573 5.38203
842 1 6.21172 -1.70418 -9.78076
984 1 -8.83761 13.1159 2.10048
1836 1 18.3247 -1.3444 2.80543
13 1 7.44213 -1.71531 2.73311
1442 1 6.97918 13.6363 16.9123
170 1 8.4831 -1.16278 -8.94688
1191 1 8.7002 12.6819 17.3313
412 1 23.1818 -1.60527 -10.5216
932 1 -4.36632 10.7859 2.23807
341 1 -4.08768 -1.32421 -9.42815
1906 1 -4.94607 -0.0749117 4.41425
752 1 -1.1953 11.6701 5.10871
1217 1 -3.52373 11.4894 2.37821
1858 1 12.1585 -0.878711 16.8236
1666 1 0.160167 27.2448 18.1096
299 1 11.5028 10.9292 -12.6686
1271 1 12.1723 12.6902 17.9415
1851 1 1.07452 1.75823 4.2554
1455 1 0.108749 14.9507 4.69547
12 1 3.94074 14.5494 4.76171
279 1 15.4392 -12.6257 4.3713
462 1 4.33321 15.2803 6.64581
1677 1 3.52214 16.5197 5.20689
795 1 15.8332 0.117263 -9.3237
182 1 17.1852 2.51454 -10.3187
1533 1 17.8954 15.4402 18.8834
1809 1 5.71108 -11.3994 4.86279
81 1 6.26267 2.40569 5.67902
224 1 5.51011 13.1898 4.56816
924 1 6.37042 0.386803 4.20253
729 1 6.02262 14.8293 18.6088
1768 1 -6.48923 12.6365 19.4668
493 1 7.47708 13.7145 6.03749
265 1 -4.88714 -0.184059 6.32486
964 1 -3.52132 14.2049 5.94879
534 1 -2.61884 1.24479 4.90064
1667 1 9.71921 0.35093 6.83142
1479 1 -3.69385 28.0773 4.79824
2 1 -2.87603 14.0304 4.04817
1791 1 26.8133 12.5875 4.89216
1159 1 -0.281411 -13.2116 5.30877
330 1 11.8631 1.14867 4.22186
1433 1 12.0339 1.92447 19.0063
123 1 13.1537 -0.514777 5.74569
1776 1 12.2957 14.4283 19.044
1664 1 15.0556 16.7032 -10.0189
67 1 -0.566658 15.6462 5.50528
1332 1 15.9804 1.82908 17.5774
282 1 1.18564 -11.1131 -8.42288
1758 1 15.2879 15.0819 5.39476
796 1 2.94516 -11.6544 4.7062
1381 1 -9.17589 3.51252 19.1909
579 1 16.6696 3.41105 6.29035
1852 1 4.65931 2.60059 18.4544
237 1 5.83001 2.20296 -10.1214
980 1 7.34108 14.6296 -8.45148
830 1 7.09428 1.23588 3.68664
331 1 6.62924 1.34444 -7.169
1236 1 5.6032 16.9863 5.46471
1244 1 7.0009 16.3404 6.40496
1416 1 8.38858 14.3394 6.38153
230 1 7.69066 1.55437 6.08261
1193 1 8.32187 15.2574 20.8526
791 1 9.25105 2.54127 20.0375
1612 1 -3.19407 1.92338 18.8964
166 1 -5.13099 -11.3518 18.9848
1241 1 13.6356 16.6288 19.1311
1846 1 11.2714 1.78822 5.9001
1967 1 13.4911 15.8943 4.35376
1117 1 0.452652 2.00436 5.64329
505 1 15.8038 3.70964 19.4962
546 1 -11.4849 2.45319 5.72947
1108 1 16.0807 -8.36053 3.57441
1088 1 2.91109 17.343 5.08
1659 1 4.29649 5.0465 4.36791
1319 1 4.68209 -10.0163 3.64964
1301 1 18.8666 3.71434 4.59654
1991 1 6.09162 16.9516 6.88949
904 1 6.0149 17.9128 6.33047
127 1 9.90462 17.0382 -7.60109
276 1 -4.8575 4.44313 -8.42472
1255 1 -3.33736 3.99672 18.9691
1643 1 8.05669 -8.79137 5.65692
2027 1 9.76182 2.28779 4.11589
1228 1 -2.44799 4.77591 5.51417
149 1 -3.45056 4.53815 -7.40105
1366 1 11.3293 16.7537 6.78804
1293 1 13.876 17.5686 5.15539
1662 1 11.5713 3.9781 4.14335
1756 1 11.9101 18.2212 8.73276
637 1 1.20805 3.8853 4.79818
181 1 13.9511 18.4471 4.58039
955 1 2.03124 5.34508 -9.13347
1483 1 2.4614 18.4719 19.4153
1979 1 1.23255 5.41744 17.5721
5 1 3.43925 -8.00104 -9.43453
150 1 3.2886 5.4485 -8.18087
261 1 5.33289 7.37349 4.66017
393 1 4.22692 6.42432 -8.82262
128 1 18.2113 5.07767 5.53241
1500 1 6.05437 4.73592 19.0676
1243 1 3.74243 4.95454 6.58933
1110 1 19.8497 4.41814 21.0914
444 1 -6.24533 4.26809 4.96028
263 1 20.3007 3.57807 5.58061
1337 1 19.8077 5.27073 3.61042
1577 1 -6.13967 -7.0657 19.8543
135 1 -20.3603 17.5188 20.2921
98 1 -6.68507 -8.98949 5.87431
2017 1 -5.32192 21.0287 16.5642
558 1 11.135 17.6627 5.99677
1867 1 10.0709 6.23717 -8.15312
1955 1 -4.52369 5.66985 5.75316
1859 1 -0.587197 4.20762 19.6002
1211 1 25.4091 5.89155 17.6232
213 1 15.066 4.93259 -8.3089
141 1 0.466873 18.6011 6.67901
652 1 -0.356812 5.46917 -7.74726
148 1 -0.627284 18.4998 5.0921
1673 1 1.03416 -6.88431 5.41592
171 1 1.83843 19.7316 5.4432
1722 1 28.8488 6.39176 4.23622
1465 1 16.407 6.27988 4.9371
1951 1 17.107 6.96731 18.907
139 1 16.2157 21.1743 -9.71831
1415 1 2.3282 7.29386 18.5763
1144 1 2.15377 -5.81585 6.9239
544 1 18.0925 -5.4852 -7.87636
481 1 -10.0707 6.69423 3.96594
1743 1 4.51338 20.1731 3.80082
1342 1 19.0544 -8.71338 18.2134
466 1 5.42523 6.29415 5.25368
1527 1 6.26619 6.77897 5.86915
1207 1 7.08619 7.29663 19.1831
1494 1 6.88951 5.85656 19.4622
2006 1 8.54554 7.79589 18.9653
295 1 -5.58708 8.60098 4.49655
941 1 7.09473 7.99184 4.46073
1250 1 9.67878 6.27189 20.2478
774 1 9.38741 -5.06438 19.2274
494 1 -1.37065 20.8408 -7.02544
1663 1 12.8138 7.04375 -8.2453
1484 1 -1.51022 8.41178 6.19912
953 1 0.851274 6.32923 -7.35018
612 1 -0.503377 7.87012 6.10559
1974 1 14.4263 8.62357 19.5023
1598 1 28.3581 8.23261 7.05122
1665 1 1.65854 8.4501 4.2434
1303 1 16.3156 8.21117 5.32727
268 1 16.5954 -4.44256 4.8176
178 1 5.42343 -5.53942 -7.80529
1022 1 30.8755 -5.08977 6.22613
662 1 4.73747 20.8296 19.31
1092 1 -9.56017 -3.68185 17.9942
1736 1 6.57111 8.57967 19.3823
1176 1 7.65241 -5.19755 19.1405
668 1 5.98099 7.78839 3.79132
2010 1 8.31635 8.60874 6.25298
1654 1 9.224 8.19352 4.4498
164 1 -2.95446 -5.88194 5.1568
200 1 -3.46182 7.09467 5.92518
1984 1 11.0013 -5.82612 19.8352
1497 1 10.4752 22.5186 5.76569
303 1 -0.572869 8.10358 -6.41111
1219 1 10.0845 9.98944 6.2168
1418 1 -0.784783 23.5366 19.981
422 1 -0.902856 8.90033 -5.69039
1688 1 1.79169 10.2714 6.4267
1922 1 -0.285665 -4.65468 5.74458
1919 1 13.7336 -3.67938 5.36952
513 1 17.2099 -16.8564 6.14365
647 1 -11.1318 -3.0123 5.86527
1555 1 14.3021 -4.04356 6.27476
532 1 15.1696 8.89072 5.17838
294 1 -10.4957 10.4248 18.6774
1328 1 4.94987 10.7777 4.28881
468 1 5.8916 9.95886 -9.95619
905 1 -7.47878 -5.95668 5.18355
1747 1 18.7665 12.0145 4.34958
1871 1 8.88676 -3.17052 18.4802
1373 1 7.10978 -4.48209 18.4418
2012 1 20.1741 -5.35476 3.0095
1767 1 5.53601 10.6465 18.9331
280 1 7.23282 9.39248 5.88419
1148 1 7.84893 24.3389 5.52531
1321 1 -5.48175 9.43418 3.91227
342 1 10.0732 -4.83516 4.79788
1480 1 -3.8781 23.7653 17.6997
807 1 8.99048 9.57569 19.1733
1143 1 9.05374 10.448 -7.79387
1647 1 12.0158 10.0847 6.80418
654 1 -1.92508 24.8172 -7.5216
794 1 11.9726 -4.26921 19.4443
433 1 -0.301659 11.0428 5.42046
784 1 15.1921 -0.19884 -8.46583
2042 1 15.7402 26.3934 18.5406
990 1 15.183 11.7796 -8.68621
28 1 2.80101 11.4526 4.51351
1290 1 2.68516 -1.64237 5.34267
156 1 17.2728 13.2913 4.93077
1450 1 6.86761 10.9861 5.32343
892 1 3.9509 12.1601 18.334
673 1 17.529 11.933 3.53838
1901 1 6.49111 10.0194 18.4209
243 1 6.27433 -1.6601 -7.78355
719 1 7.57884 11.6463 5.86127
340 1 7.3052 10.1795 4.246
1436 1 11.4389 11.5439 18.9481
1790 1 9.14823 13.3165 19.0623
1369 1 -2.61196 11.5059 3.50112
132 1 8.91776 11.4008 4.10937
441 1 10.8823 10.5895 -9.4513
1308 1 11.4228 9.48489 -8.98223
184 1 11.2826 12.986 4.88976
1314 1 -2.30629 10.5487 5.22896
168 1 12.4738 -3.89762 4.03242
76 1 11.8263 11.0625 4.23517
739 1 0.150599 26.1452 3.91653
832 1 14.5753 14.0836 4.75772
1104 1 15.9358 0.18672 -7.18433
503 1 -12.394 13.3014 3.98666
1829 1 2.94129 -0.943275 4.32207
165 1 2.72021 14.448 -8.75909
674 1 5.42995 14.071 3.75649
2020 1 4.60538 13.8085 18.2441
899 1 -9.90538 12.8675 31.2723
2045 1 18.6561 14.9056 4.29157
2008 1 6.37431 13.0617 5.2439
368 1 6.65768 11.8976 4.90855
1928 1 -7.46162 13.2572 6.27099
56 1 8.29678 12.6026 5.7022
1634 1 -2.73949 13.6573 16.8257
437 1 10.1987 -0.308857 4.99704
146 1 11.2727 13.2305 -7.33509
347 1 11.2044 13.1161 17.6116
380 1 10.2536 -2.27597 4.22451
1701 1 0.882091 12.6836 4.70041
1374 1 0.1703 -1.79974 5.13602
672 1 11.9763 13.8569 17.4617
453 1 -12.9946 14.5735 5.6419
1819 1 0.459489 -0.368768 19.0773
1751 1 14.7873 27.0173 6.34724
981 1 29.0093 13.8946 -6.28586
1078 1 15.5611 15.109 6.40521
499 1 16.8026 15.8418 -7.32069
1786 1 17.7095 14.5016 19.4709
1964 1 4.0742 0.568382 21.6032
887 1 18.9875 1.30515 -6.36215
1474 1 4.94285 28.5767 5.74409
1755 1 6.38454 27.8379 -7.98932
889 1 -6.42884 15.7043 7.22259
565 1 4.64039 14.1141 6.50069
664 1 7.46735 28.3529 -5.77962
389 1 7.37129 0.823275 6.86613
496 1 -4.12652 15.2328 21.8542
397 1 8.63207 0.740037 7.67903
829 1 11.443 14.8223 7.48156
607 1 24.9953 0.446828 8.23651
1872 1 -3.70159 1.62391 6.10411
410 1 -3.3613 14.537 7.95232
732 1 11.9829 14.8242 6.54639
1808 1 12.5215 -0.0928374 4.59874
1995 1 -1.6618 12.825 5.54162
608 1 12.8015 15.0416 7.29903
1240 1 0.67056 1.97867 6.93432
1949 1 14.9292 3.38755 6.81954
296 1 1.46781 2.36884 -6.11988
944 1 16.7715 1.37053 5.65428
838 1 1.45247 2.33723 -7.20353
1181 1 3.79531 13.2995 21.7837
1125 1 2.36968 1.9331 20.9316
1400 1 17.7907 2.64646 6.12536
1254 1 3.37079 15.9011 7.29453
1638 1 5.0291 17.1635 20.2954
512 1 19.4837 15.879 7.92359
1214 1 21.4162 29.6357 21.9132
2033 1 6.01046 15.7382 6.72163
705 1 -6.79908 2.98711 -6.05452
957 1 22.6855 3.48499 6.58602
1208 1 22.9148 4.62337 6.13322
635 1 24.2731 1.11695 6.7626
260 1 -4.78157 1.50067 -7.48246
1427 1 -1.77964 2.91072 5.83763
501 1 -3.07042 16.2768 -7.45538
670 1 11.2276 2.13746 -6.64405