ITEM: TIMESTEP
70000
ITEM: NUMBER OF ATOMS
2048
ITEM: BOX BOUNDS pp pp pp
0.0000000000000000e+00 1.3679807573413575e+01
0.0000000000000000e+00 1.3679807573413575e+01
0.0000000000000000e+00 1.3679807573413575e+01
ITEM: ATOMS id type xu yu zu
434 1 0.818177 1.67799 15.8019
227 1 -0.986442 15.3305 14.4851
1850 1 14.762 0.819716 15.0209
1883 1 16.9243 16.1908 14.9177
144 1 1.72055 -0.0134646 1.39927
613 1 3.79477 0.318685 -0.595468
753 1 2.64523 13.8303 0.466876
1032 1 -9.27927 0.89097 0.217318
1946 1 30.9428 14.2649 0.670931
325 1 4.96698 0.288076 -0.556434
506 1 6.43435 14.3101 0.900538
640 1 19.5421 -11.8821 15.4784
1898 1 6.61275 14.9655 3.04366
181 1 7.87683 15.456 1.5024
806 1 -5.88479 2.04243 0.575648
1580 1 22.8428 1.89458 14.6267
316 1 21.7106 0.546142 -11.5369
1113 1 9.01022 14.6414 15.2488
816 1 8.79082 -1.19239 1.69198
1504 1 11.7609 1.16221 -0.6361
1958 1 -2.39593 1.29596 14.0425
1537 1 12.2354 -13.5227 12.0731
380 1 14.2523 1.89999 0.864424
572 1 -1.43048 0.737483 0.548881
636 1 12.5585 13.5597 2.87883
1015 1 -0.292693 15.5513 -0.093103
219 1 13.2181 16.924 1.71879
1930 1 0.468072 3.16367 14.2186
315 1 13.7213 16.9148 -1.67707
1355 1 2.66045 1.71066 14.9166
1396 1 3.36051 15.2172 14.1035
870 1 -11.8617 1.60011 12.7615
490 1 3.31183 16.1908 -13.5144
1225 1 4.05445 16.2166 -0.772414
799 1 5.05486 2.28648 2.12286
1541 1 6.01315 3.18491 1.91115
1102 1 6.82052 1.638 14.5275
531 1 7.10689 2.38881 1.94246
1965 1 9.30416 15.9485 13.6081
948 1 8.29526 16.3676 15.1492
132 1 9.00874 17.2126 -0.168471
2037 1 9.87764 15.3643 15.4557
791 1 9.60177 1.65737 16.6387
1191 1 9.28315 14.1678 13.5879
1818 1 11.7219 2.80513 14.377
763 1 11.2926 14.885 2.52564
409 1 24.4114 0.963803 1.36835
815 1 -1.45149 1.93752 -0.0474956
2041 1 12.4066 2.38607 15.2046
1268 1 15.569 4.39612 -0.398268
505 1 15.5723 5.44666 14.1345
1737 1 0.814559 3.97563 11.7718
500 1 2.34268 4.55206 -12.1305
1385 1 3.13197 3.5534 0.512369
225 1 -11.6598 3.44574 0.620649
775 1 4.50997 4.38162 15.2842
1031 1 -9.58761 -8.40098 1.02617
1603 1 3.70963 3.58136 13.1538
1875 1 18.6292 2.89148 1.09168
348 1 5.95354 2.46485 0.937791
1067 1 6.61297 3.91117 -0.7595
1229 1 7.29256 2.99846 14.2249
176 1 -3.90851 17.4144 1.20293
442 1 22.576 3.35824 0.851569
234 1 8.78244 4.30611 -0.825477
1996 1 8.28279 17.8284 14.0158
1652 1 -4.05268 4.70508 1.715
920 1 10.3816 4.33563 0.420714
561 1 10.8341 3.24143 0.104831
1313 1 -3.19569 15.7126 0.879494
1741 1 -2.56616 4.03471 13.0151
485 1 1.17064 3.63753 0.0463038
1568 1 12.6311 2.98026 13.5744
1174 1 14.7819 5.77493 14.7359
1976 1 15.2061 4.47183 14.5242
1460 1 16.5743 5.31506 14.5519
344 1 16.4986 -7.46823 0.370759
1649 1 16.2658 20.2636 26.7104
1689 1 17.2242 5.42379 13.8286
553 1 3.98096 -7.06549 14.1353
1782 1 3.74216 18.0663 13.8139
1997 1 4.87504 6.08907 14.9113
1401 1 19.1862 3.84544 14.871
1547 1 5.4202 -7.68083 15.9279
1577 1 -7.34191 -8.67595 14.2622
1398 1 7.27806 5.16762 14.3586
1843 1 9.24899 5.85644 14.5032
1352 1 -4.5681 5.22898 -0.213714
1814 1 8.55811 4.64827 14.9358
1422 1 -3.42959 6.4375 13.4201
958 1 11.231 6.03054 1.04819
1415 1 9.42844 5.75454 15.5359
727 1 11.608 4.79471 1.16082
226 1 -3.38442 19.2363 0.586272
828 1 12.4988 3.51803 0.954987
909 1 13.6936 4.53938 -0.192564
1815 1 12.3943 5.55614 15.1262
861 1 12.1581 5.42929 0.499879
1000 1 -0.311325 17.5173 14.4109
603 1 15.8204 5.70218 1.65737
1735 1 1.11464 6.34294 13.7487
814 1 0.210757 -6.51139 -13.8363
1728 1 17.103 5.80691 12.4317
495 1 15.6354 6.52722 0.77325
856 1 1.81103 -6.53375 1.53877
1795 1 -8.15675 -5.42655 26.5989
57 1 3.04767 7.01315 2.22382
2031 1 18.2122 7.69329 0.79023
27 1 5.23295 -6.45462 -12.3437
109 1 19.937 -6.692 2.15184
1408 1 7.16623 7.99608 14.5797
820 1 6.77413 5.68629 15.4989
202 1 7.24337 7.06776 0.511134
1687 1 5.84662 5.78909 28.58
1011 1 7.58091 20.1829 -0.241392
295 1 -6.86814 8.50551 1.89444
504 1 22.9139 6.79943 -1.01178
465 1 10.351 21.5296 1.23362
546 1 -5.35656 7.15556 0.436006
630 1 10.9318 -6.54641 13.9449
789 1 11.9181 -6.93913 14.0683
1405 1 11.8974 8.02906 -1.1696
208 1 11.4005 5.92539 -0.0776689
1511 1 10.9653 22.2064 0.637622
252 1 -0.886378 19.9744 0.792207
651 1 -1.15091 6.10406 -0.178913
520 1 0.99247 -5.72782 1.49883
39 1 -0.0626293 9.07107 1.26767
154 1 14.9056 7.32244 0.455544
1839 1 3.90836 -5.80022 12.9659
1799 1 3.54608 -3.87111 14.2496
224 1 3.76215 8.99689 1.15943
345 1 19.3869 8.18892 0.66645
516 1 6.65405 -4.71456 -0.928012
1610 1 5.46391 10.2121 13.9079
429 1 7.18703 9.03124 0.0241307
1205 1 6.53902 8.73479 14.5949
1440 1 20.7916 9.50455 2.44951
289 1 10.0406 8.65225 -11.9523
1690 1 7.83344 7.98413 13.7615
2047 1 11.8092 22.8648 14.1378
1959 1 -4.27325 20.6648 0.0273721
2 1 -2.45233 8.17685 -0.352618
1895 1 -0.964448 -5.48513 0.16696
825 1 12.989 8.33557 -1.13071
650 1 0.235652 7.99718 0.68023
1391 1 14.3631 10.1681 -0.00396509
1179 1 12.3568 -4.62744 -12.3441
152 1 0.881617 8.79317 0.352322
1173 1 1.6779 9.52335 13.8036
1207 1 15.3733 10.0236 14.9511
865 1 2.54101 10.7191 13.795
1594 1 16.7303 10.8809 14.7334
1251 1 -7.52298 9.22333 13.6837
2026 1 5.00241 -3.3761 15.1878
1702 1 -7.66371 11.1664 15.458
595 1 19.439 11.6878 13.1822
1075 1 7.68889 23.3525 -0.847514
2039 1 6.83416 10.5416 14.9556
1734 1 6.00124 9.64945 14.6365
1919 1 9.54623 -2.45117 14.0648
1128 1 9.98417 -2.3777 15.2875
917 1 8.20049 -3.83576 1.8167
192 1 9.95436 10.388 1.02866
1672 1 -1.79753 7.71866 14.3505
1439 1 22.4804 8.13271 14.37
451 1 -3.23134 -4.26774 0.987905
1409 1 -2.66145 8.75818 1.88214
844 1 -3.13279 -3.37929 13.8464
1364 1 13.2734 -3.54948 -0.0391517
588 1 -1.70131 9.85057 15.7716
309 1 14.7232 -2.98278 0.84545
606 1 13.6617 11.1795 1.29768
1567 1 28.0632 -0.955531 1.16742
566 1 12.7806 -2.47362 0.712731
1526 1 0.947051 -1.90749 13.1006
11 1 1.17551 -2.407 1.68548
1167 1 -12.5442 -1.01603 -0.102516
1837 1 1.98123 -2.50688 14.6199
471 1 2.71715 11.7714 -11.8563
281 1 4.60184 -3.02921 0.221666
1001 1 6.47802 12.5998 2.09998
359 1 6.8404 -2.11536 0.782233
1042 1 -5.40535 -2.13377 2.15963
160 1 21.4647 10.8634 1.17217
133 1 -4.85239 11.7183 1.03531
126 1 23.7316 -1.57989 0.987758
1300 1 10.7979 -2.91476 1.57144
1924 1 -3.10694 11.2683 14.0041
1469 1 12.8091 12.1771 -0.0802804
1244 1 11.5269 11.3905 2.20415
1692 1 11.4929 10.7862 14.1538
932 1 -2.33948 9.91573 1.20323
738 1 -2.38215 -2.80659 13.2147
638 1 27.6115 -0.24329 2.74338
80 1 -0.0472598 14.7827 1.16368
1868 1 -0.617504 -0.764654 1.03939
1094 1 -0.369101 14.0941 14.0061
1230 1 3.2797 12.5934 12.6132
803 1 3.64279 -1.17743 1.20496
928 1 1.82071 -0.793008 14.3223
859 1 18.9781 -0.932941 14.0607
457 1 5.77107 13.3583 1.43629
1329 1 4.88777 -1.27336 15.0589
87 1 2.77007 12.8324 13.6874
1768 1 -6.64173 11.4169 15.7286
1175 1 6.47464 13.3138 0.349434
1012 1 8.89163 13.6422 1.87714
684 1 7.90384 26.9143 1.25059
168 1 9.60941 0.954834 0.734136
1176 1 10.4068 -0.0611624 14.3141
1709 1 11.0026 12.9392 0.276466
780 1 11.1352 0.100943 -1.19416
1122 1 12.0817 -0.654851 14.0914
1932 1 11.9378 -0.616644 15.2527
1338 1 10.9874 -0.0366955 -2.38859
725 1 -3.42609 14.1767 -0.319116
739 1 -1.31532 25.7797 0.898736
1411 1 -1.45106 0.0922929 13.3163
1615 1 2.32513 2.18594 14.0887
931 1 -0.611006 15.0492 2.91917
1161 1 1.69171 -0.0258628 16.6467
1948 1 15.0313 15.5637 30.5371
1350 1 -12.6968 0.0536294 15.6938
694 1 1.93524 15.0589 2.21244
939 1 1.2345 14.6146 2.7823
1542 1 3.74745 0.466589 3.59417
123 1 16.4121 0.116497 2.70195
391 1 5.36884 1.28531 2.59286
1528 1 2.55571 14.3574 15.1488
1712 1 6.90521 13.6186 1.55985
1277 1 18.6657 13.8352 14.4746
1410 1 7.4962 12.2356 1.53829
674 1 5.93096 14.5352 1.90724
1022 1 19.431 -0.358272 3.85252
1912 1 7.25674 0.94835 15.1975
1823 1 9.27756 14.5663 17.7689
843 1 20.3624 13.3695 18.257
1947 1 9.96323 0.301097 15.3362
965 1 -4.19167 13.0512 1.0493
347 1 10.8496 14.1736 16.9177
1529 1 12.8261 14.9231 15.4492
310 1 12.0441 14.8355 3.22394
2022 1 13.7987 14.469 16.0182
1573 1 0.0932558 2.09305 3.15131
1743 1 -0.345442 14.0676 3.36408
1862 1 13.4543 15.7705 15.7117
604 1 13.678 3.45564 16.4854
131 1 0.46345 2.6765 1.48208
459 1 3.10745 3.03032 2.71195
1556 1 16.3353 2.24974 15.8559
770 1 3.25497 0.861219 15.8862
262 1 4.06676 -11.4404 0.72258
50 1 4.69312 2.17004 3.04208
1977 1 5.71798 15.3077 30.9236
1482 1 4.92702 1.45914 1.28931
1503 1 33.3726 16.0453 16.2737
653 1 -5.99018 1.51489 2.6557
1813 1 -3.79611 2.87616 14.3116
805 1 7.50316 1.23493 3.62548
328 1 -4.86317 1.89167 15.7862
797 1 6.84312 3.38199 1.38832
940 1 -4.82589 2.38305 3.42708
1096 1 10.8678 0.29642 2.01175
842 1 7.63814 0.247142 -10.5185
1486 1 10.4036 16.6667 15.3004
1983 1 9.40656 0.64577 2.50852
1563 1 25.402 -11.8257 1.10412
454 1 -2.06375 16.258 3.71632
2013 1 12.1423 15.5093 2.40018
1221 1 10.9694 16.8276 2.46907
1599 1 12.2804 2.86479 16.1932
284 1 16.2017 -10.3813 1.66962
1025 1 1.27674 3.22919 1.45695
2045 1 17.6868 16.9415 0.952455
210 1 16.4972 18.0954 -11.0816
662 1 5.02928 17.1868 15.715
1418 1 3.80418 16.1534 15.837
1359 1 4.37233 5.50578 15.9112
1298 1 4.62256 -9.66959 14.1996
115 1 5.34215 3.25549 2.89435
1790 1 3.71414 17.3443 15.5961
746 1 -6.03467 17.6355 1.22228
1381 1 -6.82195 3.07315 16.2421
589 1 9.28081 16.4799 1.67663
1053 1 8.87536 -9.77268 1.92078
371 1 -3.80981 3.51825 2.49463
854 1 9.78994 2.55532 2.48413
699 1 11.5376 3.14652 1.64871
1844 1 11.4833 -9.92805 14.4857
1530 1 10.8599 17.8283 1.94245
1040 1 11.7946 -8.6463 2.25383
1512 1 -0.377529 2.52038 14.4633
1035 1 -1.1868 4.46944 1.72056
221 1 11.0643 15.877 1.83902
1497 1 12.0929 17.6594 2.61231
1103 1 14.1437 3.85543 1.63474
2011 1 13.6776 18.4131 15.4616
1414 1 1.29632 19.2762 2.86558
311 1 14.1595 4.57602 0.81592
413 1 14.7172 6.4921 1.76978
1719 1 16.71 6.22792 1.34041
666 1 2.99119 5.35861 -11.5377
1893 1 5.61092 4.77465 16.8865
483 1 3.87606 6.35596 1.81875
1508 1 4.6152 4.48191 2.79651
972 1 -7.27322 18.8145 16.348
961 1 -9.02219 6.47924 2.61531
601 1 5.8506 4.17164 2.18657
466 1 4.92037 4.4062 3.90854
989 1 6.88736 18.1731 1.84315
793 1 7.75332 5.51941 1.48182
332 1 8.59861 5.57672 2.46636
605 1 8.11822 4.70081 2.13807
1215 1 21.0537 6.49375 1.94217
794 1 9.30616 -9.31625 14.1823
1118 1 10.2245 5.39157 2.54995
1343 1 10.6876 5.28484 1.58638
643 1 -3.67019 3.00386 3.48179
852 1 -4.50232 4.71506 2.84616
159 1 11.9906 19.0751 3.1619
379 1 -2.7288 5.26904 3.32905
1428 1 11.3524 5.95943 2.41231
1943 1 -0.684033 4.78229 14.4016
1543 1 0.249695 -7.79556 2.02077
86 1 27.5972 -7.01856 0.815548
620 1 15.9355 7.2863 17.1662
365 1 3.56864 7.4922 0.211674
1911 1 16.3063 8.11729 15.611
1618 1 2.90481 7.02021 18.1445
833 1 2.2307 6.11767 2.74897
2035 1 4.09721 7.29137 15.3773
1227 1 -8.69787 6.28146 17.4768
882 1 17.1801 6.21203 2.8068
751 1 17.9173 7.4409 2.78444
1485 1 4.03046 6.84841 3.50684
1342 1 20.0278 -5.96007 15.103
627 1 5.6532 6.84192 2.99723
1378 1 6.41849 -5.79233 16.2805
1344 1 20.359 -7.36352 2.78751
290 1 -6.64567 6.15212 17.3766
562 1 8.2629 -7.11057 1.26271
1143 1 9.31593 7.1599 1.22791
734 1 10.8185 6.41749 3.12517
874 1 8.73758 6.6962 2.20591
153 1 8.91004 8.62912 -12.0667
444 1 -3.2319 6.37928 1.85921
1148 1 11.1139 20.8717 1.28447
1907 1 12.0664 20.1917 1.42963
1480 1 -0.668814 18.9569 15.885
1820 1 -0.527567 -7.08549 15.5716
71 1 1.07658 9.12219 1.45167
1114 1 0.822753 -5.2167 2.38609
1831 1 16.9971 -5.69036 16.3594
1966 1 2.59346 8.95687 14.9398
1289 1 2.46568 -4.63934 3.81219
1320 1 3.45071 7.97612 1.20408
1341 1 19.2894 8.54781 1.62481
286 1 19.1594 7.82349 2.32588
701 1 21.7774 9.83043 16.6752
596 1 -6.1153 8.79458 3.99109
317 1 6.15573 -4.75397 3.57763
679 1 7.02177 8.59901 3.01914
368 1 8.99415 9.69947 2.49187
1666 1 -5.69043 22.4305 15.6308
2043 1 9.02554 10.7286 1.76414
772 1 -6.24289 7.82448 15.9356
424 1 -4.85743 7.89099 2.2622
1722 1 25.7672 8.08744 1.63016
832 1 11.5116 8.12924 2.67374
1882 1 24.0452 8.53831 17.289
2036 1 -1.39189 8.85047 16.1829
1938 1 -1.3428 6.18587 16.1427
35 1 -0.99719 -6.35845 1.13448
519 1 -1.49794 -6.50747 2.20466
1995 1 0.451502 10.4985 1.90346
1805 1 14.4329 10.3121 3.2333
1877 1 2.62098 10.0487 17.548
1077 1 16.7827 -4.04816 2.96994
1800 1 0.134176 -17.2383 14.6072
157 1 18.0573 8.22844 1.70563
1430 1 17.0955 22.5481 2.08687
933 1 3.51875 10.6851 2.51015
1216 1 2.7695 -2.81783 3.16508
1974 1 16.8147 9.80287 15.2057
1752 1 5.07718 -4.6019 14.4689
537 1 17.6594 -3.36119 15.151
1274 1 18.5064 9.20481 1.83717
1259 1 6.14432 9.12564 2.44611
1680 1 -6.1447 9.26475 14.7597
1308 1 9.9046 10.2747 2.11856
2021 1 -5.97662 10.8026 16.2677
1901 1 9.31487 10.8202 16.5737
1817 1 8.2812 -5.02794 2.97007
975 1 9.97068 9.29989 16.3286
1848 1 9.71739 12.5767 1.96132
1916 1 9.67048 -4.85148 14.2477
102 1 -3.29125 11.968 -11.2161
1808 1 12.8479 -1.88607 2.08224
103 1 -16.1149 -4.46664 -10.682
1273 1 -1.23612 10.0977 0.970544
1978 1 13.6427 -5.62255 1.7636
392 1 0.432146 12.2264 3.08162
1998 1 0.250916 -2.43826 16.2563
714 1 1.7823 10.3661 16.6301
218 1 2.06505 10.7304 1.99541
729 1 1.97788 11.501 17.5265
1380 1 3.04399 -1.69746 4.13738
1865 1 17.3769 11.7351 15.7287
342 1 4.88338 -2.36851 1.73128
425 1 4.00026 11.2615 -12.6208
487 1 -9.09134 10.445 2.49278
397 1 4.22462 -1.27134 2.69286
708 1 -7.82651 -3.66118 3.23
1095 1 8.11456 12.9271 16.0964
272 1 -6.99631 -3.16284 2.55557
1633 1 6.93959 -2.22848 16.7792
737 1 -4.35063 11.7278 16.0427
510 1 9.66407 13.1851 0.0210968
534 1 -4.38696 -1.08628 3.03991
301 1 11.4424 13.2821 16.1245
1030 1 12.0291 -1.27295 2.31017
1275 1 0.348872 12.2425 15.6569
1089 1 -0.245868 0.00680424 15.4022
869 1 -0.299705 -0.653294 17.2777
1921 1 -1.24778 10.7 16.0234
271 1 -0.466858 -2.52553 -10.072
67 1 2.17041 12.7167 2.42381
1099 1 15.1776 -1.37163 3.29916
795 1 15.4719 -2.21316 -10.9847
1116 1 1.66963 1.8836 1.43047
114 1 15.3007 12.2194 1.77827
1548 1 3.38434 -14.0991 16.9248
787 1 2.59947 -0.721302 1.56555
697 1 16.9016 12.6896 2.39831
982 1 3.86776 13.4925 1.95932
1406 1 22.2139 14.1409 0.772424
952 1 7.5642 12.1146 -10.8943
712 1 6.43541 13.6539 2.59235
417 1 -4.95939 13.6951 3.32033
1961 1 8.29067 -1.06623 17.0287
1627 1 6.91072 -0.720838 3.40309
398 1 -2.5025 12.3339 1.67856
1475 1 -5.14612 14.9443 3.29337
1745 1 -3.7952 0.166096 17.2821
125 1 11.8675 -0.30508 -9.89972
1242 1 11.4751 0.10459 14.6526
198 1 -15.5859 14.5388 1.60776
929 1 -0.104838 -1.56924 0.780574
646 1 0.325693 0.567421 17.8791
390 1 -0.772154 12.9173 2.22454
341 1 0.324759 1.12215 -10.31
1082 1 15.5307 -0.408299 4.01102
880 1 15.9787 14.6595 3.14905
801 1 -9.92801 1.54936 1.44881
462 1 3.72354 14.6538 4.47993
758 1 17.5556 12.6715 4.53825
1109 1 5.27419 0.609927 3.6866
236 1 4.43068 13.1101 -8.43981
1021 1 7.34951 14.3383 4.63473
1463 1 20.438 14.0844 3.64847
824 1 8.44323 2.85755 5.2877
36 1 9.0379 1.52745 5.24994
1041 1 -5.41387 -13.5113 6.3613
1332 1 11.0862 1.21481 18.4292
324 1 -2.90391 13.5904 -9.23414
336 1 10.8634 15.4496 17.2824
901 1 13.1803 14.9059 -9.68276
1236 1 12.4145 15.9584 4.27976
1293 1 11.6748 14.2925 4.16152
963 1 -0.810592 13.6292 18.3355
608 1 13.823 13.2396 4.66762
779 1 14.6588 2.82043 -11.1791
2020 1 2.01326 16.5875 16.4857
774 1 14.4965 -10.2684 17.1851
733 1 15.339 17.8188 2.55339
1090 1 2.51619 1.97101 3.18376
171 1 2.89708 16.5073 3.80535
644 1 2.14468 1.93244 17.9447
1420 1 16.7026 -12.4434 3.74957
382 1 16.5951 1.41187 4.85977
1905 1 17.2586 1.85672 3.05226
1363 1 -8.94177 1.22665 4.51067
1500 1 4.36969 1.32098 17.1565
105 1 6.56605 1.58465 4.13365
1525 1 6.84093 15.9432 17.0368
1641 1 7.89036 2.70038 17.279
1855 1 21.2946 2.89526 18.2324
110 1 22.3059 3.26359 -9.53403
2025 1 10.3859 14.5298 4.11113
513 1 9.61891 -14.1389 4.90438
509 1 9.59971 15.4496 4.417
1756 1 10.5459 15.746 4.50483
265 1 -3.8009 2.18927 5.33494
1833 1 10.8863 17.2296 17.1321
303 1 -0.827577 2.42608 -10.4784
1832 1 -1.0812 3.27695 31.6585
1197 1 12.8443 17.3043 17.0439
1451 1 13.2232 0.850373 4.89539
411 1 14.8413 5.02351 1.75225
547 1 0.477138 4.39682 2.59926
426 1 2.98757 17.7612 4.81218
1436 1 3.98616 15.4293 18.942
514 1 2.49413 3.68243 3.22737
1488 1 1.69266 4.15836 4.20756
1759 1 17.5927 2.87325 3.73274
749 1 3.29187 3.04268 4.67946
1534 1 4.18959 17.0845 2.83386
1458 1 4.95481 15.8815 17.8425
1377 1 -7.80316 17.4516 18.0813
612 1 6.13416 3.87896 3.41451
1390 1 22.368 3.20282 16.287
1858 1 5.83928 2.75826 17.269
1327 1 6.95205 3.37768 3.76819
1677 1 7.88243 17.6193 3.71354
707 1 8.65127 18.1068 4.10902
845 1 9.25926 17.4355 3.35532
1942 1 8.64165 17.7204 5.75318
1413 1 -2.51334 17.9792 2.92447
663 1 9.35089 3.81004 18.5498
1662 1 11.8053 4.68026 5.43647
788 1 11.8656 3.9137 3.87162
1518 1 12.1512 18.513 17.8316
1824 1 13.1616 4.37737 16.4258
1064 1 1.06657 4.63579 3.50288
1368 1 15.6553 5.36119 17.5916
37 1 2.04853 4.72059 -8.54968
602 1 13.7603 4.28612 3.58944
1929 1 3.18253 6.17883 5.27694
617 1 2.90654 4.76286 3.69654
1412 1 3.84217 4.74542 18.1109
1319 1 3.68606 -8.74133 2.84508
29 1 17.9314 3.8089 4.49899
1550 1 3.6372 3.91212 3.52685
1029 1 4.82416 -8.33925 20.5401
926 1 18.4419 18.3241 5.08345
2044 1 5.1325 19.3225 5.07123
1933 1 4.62681 5.35162 17.8123
921 1 7.38592 5.54291 2.66056
1294 1 -6.57689 4.14721 2.90314
1612 1 -7.5419 4.82133 17.8745
1793 1 7.78221 3.39342 15.8363
1894 1 -5.80813 -7.26312 16.7802
1496 1 8.29735 5.8177 17.9723
294 1 -4.0687 6.3375 16.3713
1718 1 23.487 6.42649 17.4949
430 1 -4.40942 19.3165 3.33737
1447 1 10.3272 3.80398 18.0252
2029 1 9.79781 4.72895 3.78936
1727 1 11.6138 5.95624 3.8937
452 1 13.9442 19.1661 2.9844
1631 1 13.6022 5.56404 1.05759
1668 1 -1.08168 6.28063 3.69521
1665 1 -0.603828 5.03445 3.4044
1607 1 0.653883 6.43633 30.3594
431 1 1.69286 7.4131 2.57505
1360 1 0.432895 -6.24591 2.42845
1852 1 2.26958 8.21449 16.6945
1282 1 2.85476 -8.51431 4.62746
705 1 -10.172 5.89263 3.88448
128 1 18.5572 7.31687 5.22279
528 1 4.93813 7.2996 4.13463
1234 1 5.4756 6.48677 4.74267
203 1 -6.84932 6.42798 4.66644
61 1 7.91545 6.83143 4.2368
1023 1 19.7906 20.5228 3.92473
813 1 -6.66549 7.37317 3.31074
974 1 5.87298 19.5033 3.40699
1491 1 7.10067 7.42457 18.622
1211 1 21.8443 7.51865 16.7805
827 1 8.78609 -7.19448 17.3122
523 1 11.7642 7.13608 18.2062
1168 1 9.67845 6.825 4.86966
1597 1 10.3363 -5.62833 2.61268
910 1 8.00967 7.55172 -12.2264
1247 1 13.0849 8.32956 17.8228
709 1 -3.91454 7.28123 2.20781
851 1 10.5288 5.74923 4.21512
1985 1 -1.85831 6.98445 16.8546
1951 1 14.0058 8.1552 16.9851
75 1 -0.174605 7.25799 3.20657
40 1 -0.201851 9.26091 2.59991
993 1 -0.757633 9.72821 1.8694
1271 1 15.5188 8.73153 15.7186
1889 1 2.14976 23.4181 15.9026
1861 1 1.99242 6.28748 17.6093
1328 1 2.82419 9.92074 6.04198
667 1 15.4537 8.90295 4.50975
1281 1 -9.71434 -4.81895 3.01152
580 1 3.82187 8.06083 3.67442
111 1 3.9146 8.90576 -8.49736
1092 1 -7.87786 -6.12204 18.4162
1155 1 5.4756 -5.70215 3.38268
1738 1 4.60645 8.25003 18.3675
778 1 -7.18048 -5.63421 4.14018
258 1 6.80351 9.78128 -10.285
1513 1 7.72298 7.80096 17.8406
840 1 7.44132 8.55713 18.7123
822 1 -4.64384 9.28362 3.69291
583 1 9.41784 -5.18253 3.08679
1433 1 9.22207 -6.28774 16.7992
526 1 -2.62914 -6.44037 2.54606
941 1 10.5884 8.74352 4.9998
1834 1 -1.34466 -5.64556 18.8936
320 1 -1.29634 7.74248 3.67916
554 1 12.8037 -5.87952 2.46302
1755 1 1.02603 23.4392 2.33697
1479 1 1.69063 23.0544 3.2278
1144 1 2.49415 -2.34223 4.63907
1590 1 3.85539 -2.82782 3.51799
853 1 17.0793 -2.95659 4.44466
1033 1 3.2675 9.65993 4.92685
222 1 3.31688 8.61986 4.39066
92 1 17.3954 9.43611 -9.6963
445 1 18.6616 8.84422 2.81022
1495 1 4.95326 22.5981 -9.79339
584 1 5.58585 10.0761 -11.4583
1897 1 6.27373 -2.78395 3.70521
900 1 5.69363 -5.19677 4.47399
1571 1 8.05201 -1.85695 17.8232
1424 1 10.1747 9.4267 4.26128
1859 1 -4.03897 -3.64203 17.1981
1374 1 -4.2011 -3.58766 4.65068
1763 1 -3.05507 9.91931 3.44464
1097 1 -1.03055 10.2553 17.6702
1484 1 -1.65571 8.75953 3.61648
2014 1 11.4254 11.0525 17.6375
18 1 0.597502 -3.67063 -9.13373
1345 1 -1.29307 -3.95316 16.7767
423 1 -0.72027 8.64338 3.18346
1699 1 -0.0317555 25.5701 5.24216
337 1 -0.139509 23.1928 -9.9659
938 1 14.6426 11.3945 3.4199
645 1 1.70512 -3.32714 4.10907
720 1 4.28939 11.9551 3.85814
82 1 4.69366 -3.93949 3.28735
1217 1 4.47942 11.5487 2.87717
1478 1 4.50313 10.3843 18.0147
521 1 5.55073 -2.38452 2.87594
1066 1 3.92759 -3.96635 2.38611
542 1 5.62065 -3.71666 4.31227
59 1 6.1968 12.095 -10.5707
1203 1 5.49303 12.7851 2.55503
1927 1 7.2642 10.9699 4.70066
1987 1 -7.35042 11.8037 17.976
481 1 -6.02247 11.0567 3.65553
1810 1 7.71115 -0.446177 17.7056
1753 1 10.3859 11.0131 2.76992
190 1 8.59397 11.4633 3.25624
836 1 10.6433 12.571 4.98444
299 1 11.2375 12.017 -10.5743
362 1 10.8894 -3.71227 2.32183
268 1 11.4054 -3.08314 2.88517
888 1 25.2251 -1.29922 4.01672
918 1 10.5607 11.4865 4.37549
579 1 14.3849 -1.3585 4.12711
1588 1 -1.44847 -16.287 3.2581
24 1 1.73863 -1.26371 4.51209
1026 1 -12.7772 -0.351042 3.67754
1706 1 1.99667 14.2759 4.5895
13 1 4.43408 -0.344124 3.5802
468 1 3.30341 11.908 -10.5812
177 1 2.89669 -0.805523 4.70378
966 1 2.68823 13.8836 3.73937
735 1 5.17121 12.2544 3.34412
1767 1 4.46017 14.5217 15.6936
899 1 -8.87564 13.7187 29.9972
1796 1 7.22264 12.8047 5.68664
293 1 -5.16621 0.385615 4.7958
809 1 -4.55903 0.438879 -8.0676
326 1 -6.53935 -1.33368 4.30392
1538 1 9.94518 -0.946777 17.7154
385 1 -3.68887 13.3242 2.61765
1638 1 -1.06749 12.6992 17.7578
148 1 -3.7149 11.8409 3.39421
1613 1 10.7931 13.0758 17.015
512 1 12.8481 12.2024 3.09975
517 1 -0.679637 -1.01952 4.98411
1166 1 11.5623 13.0188 4.80358
1388 1 -1.25645 -2.1123 4.48399
263 1 14.9566 2.46029 4.02821
1013 1 14.795 27.1802 4.82615
1287 1 1.3445 1.527 6.19401
598 1 14.7241 1.58286 -9.19821
482 1 1.74861 15.0431 5.20798
1873 1 3.36537 13.762 18.1605
1646 1 2.91387 -1.3843 -7.55891
437 1 6.65291 0.863593 5.37411
713 1 4.84915 28.2766 -8.24541
1979 1 -5.69536 1.11515 19.1853
702 1 20.3577 29.7299 5.39019
1645 1 -6.22916 1.80307 4.63847
821 1 -3.84088 15.2495 6.34109
169 1 -6.65279 -0.947592 6.77345
747 1 -3.56183 0.841405 5.15494
665 1 10.3421 15.3961 7.22917
330 1 9.96884 -0.0459915 5.92339
657 1 -0.451796 13.689 6.7965
246 1 -1.46826 14.9619 -8.96696
1517 1 0.0110137 13.8885 5.6202
1112 1 -0.664961 1.82466 5.18269
1365 1 14.5148 4.39809 4.84478
1754 1 15.5181 16.8383 3.76044
893 1 15.3011 -11.1755 5.11866
1758 1 15.0531 14.1528 5.68387
1149 1 2.34892 3.34715 4.85288
1111 1 16.6544 -13.221 5.35352
1515 1 3.58042 15.6856 4.22094
1725 1 16.0751 -11.3539 5.67889
1939 1 4.98998 2.12509 19.0968
142 1 4.8649 3.17315 3.81085
264 1 4.53688 1.62389 6.18963
924 1 6.40369 1.4545 7.05029
1253 1 5.97892 14.4841 6.19956
1591 1 5.13448 2.82336 6.35875
1299 1 6.75761 2.6009 20.1002
811 1 6.5527 -11.0332 4.39394
245 1 8.31153 15.1015 4.22028
403 1 7.47468 16.8668 5.59223
464 1 -2.96932 16.2536 5.93105
1920 1 23.0443 2.74714 18.176
1915 1 25.6289 1.70535 5.86297
1769 1 12.2781 30.1215 19.0824
97 1 -2.27828 3.17131 4.52407
1545 1 11.5425 17.2514 5.44061
233 1 -2.37732 1.94054 -6.86486
785 1 13.7779 -11.6962 4.34083
1219 1 13.4343 3.24738 4.78555
1196 1 0.522316 14.7563 5.26314
1835 1 0.359877 1.90128 6.37176
808 1 2.141 5.0838 2.85675
1063 1 13.4935 2.91646 3.78701
276 1 0.162626 3.79149 -7.85053
1623 1 13.0401 -9.2958 17.9951
976 1 1.38294 3.70951 5.40488
1453 1 3.10075 4.93778 5.55312
1981 1 14.7663 5.01009 19.4611
363 1 3.62397 2.69197 5.8695
719 1 4.27168 16.4137 4.90407
1786 1 19.3775 15.3172 18.369
756 1 5.63087 16.5858 4.94595
692 1 3.96429 2.80159 6.99301
1896 1 5.17442 3.80012 19.03
104 1 5.8545 1.90715 6.09926
1266 1 8.02908 3.82804 4.88502
2017 1 -5.82792 18.6714 18.2129
565 1 6.43739 17.46 5.51061
498 1 8.35155 16.8385 6.28139
484 1 -4.19665 3.38174 5.90514
247 1 11.5728 15.8823 4.91692
890 1 -3.55071 3.19855 5.19859
1255 1 -2.72769 4.64567 17.7502
1136 1 12.6679 3.79321 5.42199
94 1 14.8841 19.1887 4.8974
1647 1 14.1501 5.11397 4.33876
2042 1 15.9512 19.2995 19.5079
370 1 17.577 4.17384 5.48728
1531 1 17.7629 5.98336 6.21105
1471 1 4.38917 3.4906 6.08911
1457 1 6.90224 17.8836 18.2919
1049 1 5.64252 4.93086 5.56402
275 1 8.23509 5.14809 3.42937
1263 1 7.10299 5.41422 5.32505
1871 1 6.60682 4.79193 19.6854
1748 1 8.95618 6.03435 5.05535
973 1 9.47991 -8.78478 4.84442
1630 1 23.7218 4.2594 5.54999
349 1 23.7569 5.89442 5.17811
807 1 12.2092 5.71276 18.5085
532 1 11.4064 7.41655 5.86605
501 1 -2.66493 18.0559 -7.61985
101 1 10.6407 4.89492 -8.67955
139 1 13.1413 18.7552 -8.65861
764 1 13.2712 19.4697 4.24645
1005 1 -15.2525 5.55756 5.9442
254 1 14.7284 5.83389 -9.89082
1569 1 1.62895 7.19008 4.5239
432 1 -0.337445 19.9658 2.80771
248 1 16.7672 20.2418 6.16944
2040 1 4.23698 6.28142 18.5383
14 1 1.99638 -7.28057 5.05392
1346 1 2.43901 -5.74044 4.21247
31 1 4.0945 5.37497 5.30805
867 1 4.32989 5.25307 8.07977
1949 1 18.7058 6.50354 6.48484
261 1 5.7792 5.0941 6.84872
1772 1 6.23839 5.65649 4.83179
356 1 6.61948 6.65193 19.8999
98 1 -6.44627 -8.73576 3.55529
70 1 -5.82039 6.49625 5.24067
937 1 8.8065 6.12338 6.12344
1661 1 8.88975 7.54707 17.7368
998 1 -3.49314 7.26819 3.42872
244 1 -2.87455 6.86209 4.15089
860 1 13.0442 6.77642 4.56004
1804 1 -2.18783 -5.31876 18.1072
1640 1 13.2185 7.057 5.72129
637 1 0.439948 6.60798 5.1144
619 1 2.05184 8.13551 5.20391
375 1 14.1547 7.63542 4.89864
1006 1 4.03021 21.6564 5.51102
1158 1 17.7017 7.34495 4.57534
790 1 2.91205 8.78495 -8.33113
892 1 5.05108 7.76577 19.9365
1157 1 4.92069 9.13809 6.07436
689 1 5.77882 6.90486 5.81152
350 1 19.6515 -6.54276 7.06568
469 1 5.3592 8.31843 5.43976
1971 1 6.46382 8.12088 5.48417
418 1 7.7384 8.2398 6.0822
1643 1 6.67024 -4.29229 4.52382
1787 1 9.02038 7.49419 5.93873
1250 1 9.34153 8.94434 18.5838
1303 1 24.8564 7.80515 3.66676
607 1 23.4722 -5.44091 5.6512
367 1 9.73672 7.96432 4.65272
54 1 14.7492 9.28384 -8.35153
1913 1 11.2506 9.35425 18.415
156 1 12.7433 9.97848 5.63998
1017 1 13.278 23.325 4.75445
1238 1 12.258 9.46494 4.49707
321 1 0.753315 -4.77743 4.25089
282 1 1.97493 -5.6632 -7.37836
312 1 1.97168 8.96103 5.85607
660 1 0.547195 10.8515 -8.31635
1108 1 14.9476 -5.87139 3.60883
810 1 2.99759 8.18192 6.29739
1891 1 2.01618 9.68371 5.03355
1465 1 17.3447 10.7586 5.5345
1509 1 5.27119 10.5865 5.1892
688 1 4.27018 9.80091 5.8053
841 1 -8.90212 9.46248 4.92043
1267 1 4.55538 9.34233 -6.56907
1602 1 6.32336 10.4634 -8.77099
1619 1 5.73856 -4.21199 5.4677
65 1 7.2725 10.3637 5.57402
1069 1 8.45807 -4.12034 4.57709
318 1 8.01647 -3.29122 -7.29782
1928 1 -5.26859 8.49186 4.61817
1733 1 -3.11237 10.4446 4.39876
544 1 9.64756 -2.72541 -9.55109
308 1 8.51787 10.6139 4.04769
829 1 11.6839 10.4759 4.84879
1720 1 10.9341 9.92522 6.25159
724 1 -1.24639 11.2448 5.55013
1624 1 11.6172 -3.80242 17.3526
946 1 -2.48405 11.0026 6.23415
400 1 0.714627 9.13322 3.09423
819 1 12.9317 10.6382 4.90355
1918 1 14.0161 11.1529 4.4266
1278 1 1.98238 13.1154 5.30654
1791 1 29.1638 10.8512 5.32322
374 1 16.326 11.0841 -7.75021
269 1 3.2875 -1.81635 -8.533
22 1 4.90506 -2.90645 3.44658
1900 1 4.0099 12.1289 19.651
839 1 5.14398 -2.27593 4.3389
366 1 4.15897 11.3521 -8.79516
25 1 7.68461 -3.54098 -9.76454
196 1 -19.3819 11.2267 -7.93017
1072 1 5.82761 -2.28033 5.12497
930 1 -6.45881 11.2833 6.63629
73 1 7.85061 12.1674 -7.26908
639 1 8.14951 13.0187 6.98616
1184 1 8.61912 -3.19437 5.49074
1085 1 8.27037 -1.55241 5.35239
93 1 22.337 13.1153 4.47168
255 1 9.20518 -1.69582 4.06775
1682 1 10.8298 10.709 18.9983
1829 1 -2.25351 -1.95364 4.92959
1078 1 10.334 11.6266 5.63084
165 1 -0.285157 12.047 -9.38323
1124 1 0.0890452 -1.94181 19.8834
122 1 13.4699 10.3067 2.74398
1596 1 14.9073 -2.19649 18.4645
149 1 1.0692 12.4155 -8.35837
135 1 -12.3283 14.3246 17.5226
990 1 15.7858 11.9854 -8.21324
175 1 3.2983 -0.670109 5.61916
1182 1 15.5713 12.8169 6.3236
1660 1 2.44533 13.7861 6.41459
895 1 16.1638 -1.12169 3.4249
1456 1 3.73236 12.7525 8.14465
322 1 4.71155 -1.52401 5.12928
942 1 6.04615 0.515681 4.47742
172 1 4.45097 13.9178 4.55289
876 1 5.33734 27.3619 5.00484
1007 1 5.08188 -1.06016 4.34909
201 1 3.37792 10.9813 -7.06192
767 1 5.92856 12.5037 5.08764
983 1 20.6536 11.817 -8.29586
1068 1 5.3892 -2.26302 6.13811
800 1 6.30495 -0.266289 5.68201
884 1 6.02531 -1.26694 -7.46351
1749 1 7.63064 13.5258 5.16325
1419 1 8.75364 12.9673 5.82241
250 1 9.88696 12.5114 -7.52745
1379 1 -4.09172 -1.41618 5.07289
2000 1 10.722 11.966 6.65588
970 1 11.5887 0.374058 5.23854
178 1 11.5585 -1.15158 -6.52441
2024 1 0.181378 12.7979 19.5077
1969 1 12.8396 -0.276399 19.3115
864 1 12.8697 -1.49384 5.89646
1723 1 14.3274 13.6317 7.36748
1761 1 1.58116 13.2586 22.2103
752 1 -1.01026 15.7963 6.59008
654 1 2.84378 28.0631 -6.23868
488 1 1.43532 14.2377 6.94668
1582 1 1.78155 1.19414 8.26981
648 1 3.97557 0.473481 6.02334
2012 1 15.8905 1.17714 6.69976
493 1 4.70318 14.177 6.71613
1849 1 6.61725 0.398635 7.00354
48 1 5.79075 -0.457792 -6.14817
1851 1 4.41946 1.17304 8.24556
1773 1 5.69718 -0.142744 6.58106
625 1 5.3254 13.8656 8.40209
1586 1 -6.16776 1.0571 20.5952
635 1 21.23 0.428761 7.99379
905 1 -6.56059 1.66368 7.87671
743 1 -4.83251 15.0122 6.51558
1730 1 9.23736 -0.251745 20.3239
556 1 8.35117 0.471016 7.3293
2033 1 9.09998 15.9729 6.01986
1483 1 -1.65957 14.1154 19.8279
463 1 10.0448 14.1469 6.76328
1125 1 -2.24307 0.919921 20.8324
212 1 -1.14124 0.964418 -6.46346
858 1 13.0078 14.0936 8.03622
830 1 12.8876 1.17989 6.28976
992 1 13.9513 14.4774 21.5664
1778 1 14.4557 16.7804 4.66475
1081 1 15.3792 16.0364 6.68544
652 1 1.40787 2.09885 -5.96585
1866 1 3.80706 -12.1141 6.81382
184 1 16.4187 15.4954 7.4933
12 1 5.42728 14.3518 7.47307
1991 1 5.39484 16.9329 8.25329
945 1 20.6031 15.3273 6.13325
911 1 8.42553 1.52619 21.2958
460 1 7.79878 2.15624 6.65392
647 1 -5.61229 2.944 7.24863
1243 1 8.84435 2.3052 7.08356
1762 1 -5.93181 15.7939 -8.0331
552 1 -2.54336 3.90415 -5.85532
1366 1 9.61299 4.1839 6.5177
1208 1 22.6646 3.3229 7.13707
610 1 -1.10327 3.6228 7.58838
710 1 -3.69202 16.7404 6.94155
569 1 10.7914 1.29346 5.90211
2001 1 0.848865 1.36841 7.23387
1904 1 0.854076 16.4471 19.5867
1766 1 3.11017 17.3461 6.00512
1899 1 0.723762 2.94696 20.9351
497 1 1.1855 17.3883 6.50962
182 1 16.5948 3.34512 -6.71805
2032 1 16.6418 16.0496 6.72259
116 1 3.43522 18.0565 7.84795
2005 1 5.01814 2.71145 7.46197
174 1 4.91841 17.2774 6.98544
786 1 19.8323 -9.99211 -7.20956