ITEM: TIMESTEP
240000
ITEM: NUMBER OF ATOMS
2048
ITEM: BOX BOUNDS pp pp pp
0.0000000000000000e+00 1.3679807573413575e+01
0.0000000000000000e+00 1.3679807573413575e+01
0.0000000000000000e+00 1.3679807573413575e+01
ITEM: ATOMS id type xu yu zu
923 1 -12.368 12.8749 29.8163
2043 1 14.1098 13.2004 15.4754
1428 1 15.2131 14.5469 1.67573
652 1 0.859582 13.1893 -13.5131
242 1 15.8152 1.40924 -14.1842
1130 1 2.26259 0.413395 -0.0109882
1786 1 16.6444 14.9476 13.9324
1382 1 4.79138 -0.289767 -12.1255
1298 1 4.78054 -11.8069 14.2883
90 1 5.87822 -12.2322 -13.1604
538 1 5.22998 28.1186 1.2009
1418 1 -6.86441 14.2832 14.3574
118 1 21.1829 -26.9512 29.0177
1456 1 6.77852 15.6523 13.5983
1829 1 8.19318 1.43282 -11.4908
1306 1 -2.3133 27.5146 27.1043
644 1 -2.88225 12.818 13.5704
1415 1 9.92463 14.4971 0.858167
13 1 -2.75377 3.71509 -0.497906
1159 1 -13.5083 -14.3276 26.5722
316 1 11.2823 1.13897 -27.3821
1058 1 -16.1687 14.1908 14.471
70 1 -0.141569 13.0928 0.904089
1735 1 -12.7554 1.27807 -1.00271
1845 1 -1.74918 12.5625 13.6181
911 1 16.2938 -12.0931 28.7927
1042 1 15.0718 2.3001 26.8142
1591 1 14.1727 -10.8132 14.7015
927 1 -11.8906 1.1816 14.3183
309 1 -10.3605 -11.5284 13.6388
1277 1 4.46872 0.493128 14.2558
598 1 17.4338 2.61051 -1.13865
342 1 19.0582 -11.1615 13.7761
536 1 4.94014 16.5994 14.6197
57 1 -7.09119 2.00248 1.1859
1082 1 7.38167 -12.2086 15.1942
1387 1 -7.27177 0.832629 15.3212
722 1 20.2158 1.75186 15.8764
1835 1 -5.34677 0.842092 1.0209
2010 1 22.8653 15.0343 0.299685
228 1 -6.49308 16.4796 0.472109
1136 1 -3.73308 3.72854 -1.3711
1081 1 23.0095 29.3517 -14.2614
666 1 -5.4306 17.2069 14.092
834 1 -1.61189 -11.8012 13.8628
1732 1 -2.56035 43.5342 1.31755
1810 1 -3.10349 1.56577 15.3901
1535 1 28.3533 1.5631 27.3561
673 1 12.3726 13.7445 0.0591681
255 1 12.5241 1.13524 0.760197
672 1 14.0639 29.9247 27.4054
884 1 14.9129 4.09052 0.719956
112 1 2.43833 17.4189 14.3429
289 1 29.1702 -11.4871 -26.0152
307 1 1.40676 5.44968 13.9772
1342 1 17.6032 -11.1367 28.2374
1198 1 2.99487 17.8684 -0.143093
1886 1 17.781 30.7251 15.147
1378 1 18.5605 -10.5119 29.5173
1332 1 17.1015 3.21773 13.8932
1538 1 -8.96834 18.3132 27.8863
93 1 5.04342 19.0507 -11.649
452 1 21.2582 2.49738 1.39134
1336 1 -7.24719 4.48031 15.4182
511 1 7.06196 -9.94688 -13.7244
1435 1 8.61821 17.5696 15.0349
482 1 -4.05838 15.9443 1.7325
1135 1 -3.51467 3.28142 13.8215
441 1 -3.31048 4.28743 -13.328
1523 1 -3.24184 2.68312 15.8437
619 1 -1.99944 3.81957 13.9758
1169 1 25.3589 -12.0375 1.42382
1564 1 14.0156 4.25341 13.6183
1118 1 12.4514 19.2552 0.549338
827 1 -1.07827 2.54921 16.2621
942 1 12.3623 -10.8844 0.494768
5 1 -0.790717 3.53732 -13.9618
2033 1 13.2046 20.2758 1.34832
1404 1 1.21697 -22.3649 15.1819
71 1 -11.875 18.8023 2.82449
1989 1 -25.0396 -9.32581 1.85612
830 1 15.8211 5.63555 15.5349
194 1 -11.3686 -8.91277 28.1007
1763 1 -11.7425 5.02819 12.5616
679 1 3.07161 17.3631 -11.3652
880 1 4.15426 4.68431 -11.7829
1196 1 -9.97028 18.2948 -13.082
1059 1 3.21244 4.01673 14.9174
1233 1 31.6353 -8.2998 -12.5315
8 1 -8.54425 5.72032 14.5746
1855 1 34.8093 17.286 1.34534
217 1 7.28686 19.9652 1.24479
467 1 9.07581 4.73366 -12.0678
178 1 23.4477 5.12848 -13.0118
1226 1 35.1806 18.0714 14.2085
1410 1 11.7272 5.72795 1.31565
1765 1 9.57382 3.32514 28.2902
1420 1 24.4494 -21.6737 15.5544
18 1 9.69192 19.9228 0.184449
365 1 12.4356 20.4872 0.270803
421 1 0.545194 5.17258 0.659734
1635 1 13.3578 5.54916 14.8029
451 1 0.969622 -7.52269 0.94773
699 1 13.8224 -5.66635 14.5824
701 1 14.8351 -6.78616 13.9636
67 1 2.50539 7.71214 15.8155
1261 1 1.88808 21.488 -0.0467184
125 1 2.64042 6.54137 -13.6315
929 1 -10.4749 6.25672 1.33516
1209 1 3.82372 5.95792 2.42288
1097 1 4.5511 20.1744 14.426
796 1 -8.56083 -20.2757 1.27776
1421 1 5.16454 18.7778 12.3267
894 1 8.30671 6.24186 1.83518
594 1 6.55987 -6.50222 28.7694
1474 1 20.7085 33.7132 2.48475
1321 1 -5.58403 21.7497 15.9834
1212 1 -6.47922 -19.178 0.074312
1901 1 7.70344 5.31962 28.6344
636 1 -5.07284 5.18902 12.2535
1707 1 11.0102 7.73188 0.829297
430 1 -4.33428 21.6013 27.9718
293 1 8.99225 6.9701 13.7082
963 1 -2.93549 5.68306 28.2307
136 1 24.4386 8.28858 -10.872
1347 1 -17.331 8.4741 14.8938
1712 1 -2.01824 -7.28963 0.558833
845 1 -1.29414 4.65567 -12.3152
1837 1 -0.0944115 -6.4428 27.7296
1511 1 13.391 35.9241 -12.0346
1874 1 -1.50207 -20.6619 15.2426
1002 1 27.9776 22.363 16.2048
1281 1 -12.257 -18.5346 0.838494
704 1 13.6297 7.66698 2.43151
438 1 29.0208 8.41689 1.83706
1340 1 -11.1443 22.3904 27.4626
1784 1 2.92239 22.4568 16.1511
397 1 3.60766 9.57431 16.3159
1462 1 -10.2707 7.58134 -14.6602
1531 1 -8.12196 8.57808 -0.0290809
447 1 19.0755 -5.17729 1.05763
1512 1 4.56176 -5.53047 -0.552446
490 1 -7.64515 21.4253 -26.7767
712 1 7.45686 -20.1326 16.8539
349 1 21.7172 8.92387 27.4046
179 1 8.65172 9.10911 2.18758
373 1 8.45313 8.50103 0.887289
1563 1 22.8616 -32.1001 -0.669585
1225 1 24.3967 8.87447 -0.950284
1838 1 13.1774 8.6162 0.249009
1960 1 -1.10085 21.3498 15.685
410 1 -0.917139 21.4499 14.7331
1752 1 28.5956 7.82157 0.910163
1822 1 -12.7299 9.32481 15.4203
1349 1 -11.9996 24.314 13.6229
151 1 15.5124 10.0065 -26.0726
1422 1 2.71151 10.0762 15.4504
593 1 4.18121 -4.82156 1.82219
1279 1 -9.87579 38.87 13.8307
132 1 18.2931 -4.22703 14.5042
958 1 16.7119 -6.16548 0.0634436
158 1 -7.12533 -4.64112 -0.370736
387 1 5.64896 -3.80691 13.0048
810 1 -8.1702 -17.0571 13.9714
251 1 36.5606 -3.27766 0.636684
1987 1 -19.8852 -4.7278 14.6425
130 1 6.54113 8.45479 -12.4163
1448 1 8.61937 -17.6129 -0.229735
968 1 8.47079 8.02611 -13.8157
1741 1 9.26357 -3.06298 26.7716
638 1 37.5382 -4.33702 -10.5341
1557 1 -17.0848 -17.9264 14.124
1815 1 25.8049 -4.72329 14.2651
1583 1 -2.66771 36.1112 28.0314
740 1 0.668351 11.1742 14.7806
37 1 -1.05945 23.3456 -13.5445
659 1 1.77795 24.7859 0.846757
1469 1 1.77853 12.2087 0.683394
563 1 1.75608 -17.0296 2.77911
1503 1 29.4111 27.5551 14.7268
607 1 29.8794 9.72072 0.27453
1140 1 2.19006 10.9615 15.3802
748 1 -9.91242 9.96114 1.61348
1916 1 3.45659 11.1933 28.6562
1144 1 -8.76221 -2.60239 -0.801011
682 1 -5.93139 -3.10642 0.557031
1759 1 19.1868 25.1665 -12.5959
1385 1 3.64947 10.1427 -13.1332
402 1 32.0895 11.0805 14.0093
1980 1 -7.6754 12.2797 14.417
1053 1 19.4521 -2.223 13.8418
1844 1 18.3741 -15.1827 14.1262
1203 1 7.21353 -2.10752 1.40169
1888 1 7.20807 11.6346 13.969
1880 1 -3.38742 9.82448 -0.471891
695 1 23.5403 24.377 1.75436
64 1 22.5684 12.4438 0.812624
1443 1 10.1054 24.4901 27.742
961 1 -3.05614 38.8698 14.6307
1931 1 -19.2682 13.4355 14.6201
2 1 -2.84623 24.3437 13.2723
873 1 11.9462 25.0482 -13.6877
1235 1 11.5986 -2.50618 1.12891
1407 1 -1.32833 10.4165 41.8927
77 1 12.6343 -2.33623 1.09218
528 1 12.32 25.9965 14.8125
893 1 0.368849 -2.42268 13.6358
1019 1 13.6851 -1.52817 14.9915
1338 1 1.4367 -0.614053 14.9882
753 1 -12.7927 25.521 1.86937
1599 1 43.6969 14.344 29.5
1551 1 3.45971 0.337352 -0.17488
1041 1 -8.63671 -42.4373 1.52078
25 1 -10.7884 -14.5706 -12.4566
1579 1 17.7748 12.0028 1.31244
102 1 5.77997 26.8716 -25.3559
1792 1 -7.40622 27.1629 12.5921
29 1 34.5067 -0.23038 13.9477
283 1 33.788 13.2824 1.07647
903 1 -5.43676 13.1887 1.93375
892 1 7.824 -1.04862 13.9157
405 1 9.63423 13.1277 -13.5759
1851 1 -2.11862 -0.428488 0.866113
857 1 10.2822 -14.9174 0.76789
1291 1 -15.7688 0.308345 1.68519
1642 1 13.0324 10.9955 -13.4757
1160 1 -2.32133 -1.4435 14.4334
1661 1 0.610817 12.5846 11.8189
468 1 0.2913 11.977 -28.4608
336 1 13.2629 26.4534 13.6956
776 1 -0.23521 14.4059 16.2747
2011 1 15.1596 27.95 16.5857
1389 1 -13.1459 14.6881 -12.0206
1361 1 3.46796 -12.189 2.54343
1434 1 15.9704 1.82345 2.42761
1472 1 -11.9507 15.5561 16.9666
1491 1 17.7039 14.2624 29.7382
789 1 4.62655 -26.0853 1.88256
1231 1 31.9171 2.28256 15.3479
1687 1 -7.69355 1.71407 44.5509
453 1 -19.5303 28.2674 -10.1235
1016 1 19.6395 13.5139 16.7066
1134 1 21.2797 -25.6514 0.546822
44 1 -5.11318 0.156982 0.219551
521 1 21.932 0.0229386 -10.6758
643 1 -3.47172 -11.8955 0.644272
790 1 -5.28089 15.5792 1.22674
1039 1 -3.55812 14.2779 16.098
1126 1 -2.03866 15.1195 16.1068
1499 1 24.86 -0.123814 2.6513
906 1 -1.29477 27.9741 15.9699
1834 1 -0.240201 -13.5843 13.6761
876 1 13.4392 41.4293 1.16497
1729 1 0.967489 14.0355 41.8977
589 1 -0.169455 15.5786 -10.9234
1090 1 -13.1164 -11.1201 17.116
1686 1 28.1809 -11.9111 0.905772
271 1 16.4493 1.02949 -10.4532
1170 1 16.6441 2.566 3.03333
1576 1 2.19155 2.91576 15.7465
766 1 3.05629 0.521664 1.08835
1894 1 -10.4679 2.31044 15.6267
1194 1 4.10879 29.5535 16.3826
78 1 4.24969 -10.9336 -13.854
732 1 19.7245 14.4138 17.2267
656 1 19.118 15.4 28.723
1085 1 5.72617 -10.9269 15.2198
1152 1 22.3504 16.5117 14.7579
82 1 8.57944 2.32035 3.24451
1131 1 8.16189 2.46779 -13.7076
1147 1 -17.6983 -11.1738 16.3257
1339 1 24.2904 -24.4779 16.922
1525 1 23.0042 2.42964 14
1283 1 22.9414 1.20293 15.1979
552 1 -2.75299 3.67444 2.17498
557 1 12.5727 1.36252 -10.6691
770 1 -13.8622 -12.3677 1.00551
1628 1 -0.688761 1.45164 2.02222
807 1 27.5607 15.746 29.0607
769 1 0.667717 -23.7571 1.71601
1950 1 40.6037 -11.3992 28.1668
1319 1 1.61138 3.21697 1.22555
1485 1 2.90427 3.05148 1.33545
53 1 28.6148 2.62476 15.8873
1529 1 -9.15781 2.86124 3.37581
39 1 17.5639 3.17411 -10.9877
1690 1 2.31474 3.75678 4.6176
461 1 -8.40918 15.9958 16.238
201 1 20.049 3.46139 0.905962
1883 1 4.89232 4.18634 16.3558
139 1 6.73154 16.6904 -11.8893
1957 1 5.25576 4.20857 1.38261
69 1 6.15968 -9.92629 -11.332
1008 1 19.9256 2.54145 2.76618
1026 1 -20.0653 3.52689 2.42198
1482 1 7.41119 4.53835 2.11058
1114 1 -4.16568 -10.2901 2.0828
1062 1 -3.07513 4.66368 16.2025
1095 1 9.1512 3.53129 3.16809
314 1 12.3537 2.36149 -25.9425
318 1 12.1245 -10.1251 -11.1842
1009 1 14.1409 16.8793 2.65178
1543 1 -14.1913 -10.1414 0.903797
445 1 -0.416643 2.92788 -11.8354
1368 1 28.6813 -9.46564 29.5238
449 1 -0.251435 18.0177 1.37278
466 1 3.22014 17.242 3.55597
212 1 1.47875 -7.53515 -11.0303
1458 1 2.99143 18.7932 15.3359
1492 1 33.0453 -20.9215 15.8582
1431 1 3.29296 18.4746 16.3735
1063 1 19.7465 5.46395 -12.4451
1288 1 6.5146 18.4045 16.4325
404 1 6.51667 5.26618 17.3036
1774 1 9.96308 17.8211 28.7019
63 1 10.7616 -10.1838 14.789
267 1 -5.04779 -8.03377 3.41777
2034 1 7.4979 32.6133 2.7978
428 1 11.4413 32.217 15.6254
4 1 -16.2039 18.4547 -12.7194
1857 1 -1.52165 -10.1963 14.9645
1532 1 12.4691 5.85774 30.3633
1672 1 -3.70578 5.04262 15.4196
1354 1 11.3629 5.71142 16.473
1484 1 -1.37164 4.70541 2.55754
167 1 -0.494779 5.03016 2.16118
615 1 12.5735 -9.59181 17.0478
1017 1 14.256 33.0636 -11.3262
205 1 -13.0251 7.07939 1.34287
352 1 28.1268 19.4137 -10.3209
1475 1 -12.725 7.70367 2.03475
1015 1 1.65391 20.4103 15.1965
1697 1 -12.0372 6.5208 3.87266
534 1 -11.1685 -6.54868 -12.7017
877 1 17.3424 -6.5741 15.7501
131 1 2.60037 -6.91161 -25.4093
1553 1 -9.53778 -6.34663 16.8489
1468 1 17.2068 7.6323 18.0053
1767 1 4.71135 6.39998 30.3501
1983 1 18.3026 7.96996 1.65865
547 1 -8.69051 -6.20315 2.50053
187 1 8.94403 -7.89841 1.0454
1127 1 -4.28537 6.76738 2.14022
252 1 7.5516 7.16546 2.02483
783 1 -5.16926 -22.3902 -11.1425
527 1 22.9291 -7.96132 16.2765
1885 1 10.4505 7.0034 0.461242
1897 1 9.97478 -21.1627 -25.9657
1892 1 10.2498 7.47402 15.2686
1711 1 25.7927 6.75932 17.0933
1527 1 -2.09278 6.70988 4.52863
1561 1 -0.732234 20.5254 16.3369
1259 1 -0.386485 6.30101 17.9985
1489 1 24.7112 -7.04319 1.39401
35 1 14.5125 -33.0943 3.54457
1961 1 11.9184 -4.06589 16.5087
180 1 2.99821 -19.5795 -10.4803
350 1 42.6847 -5.43524 -10.8629
489 1 3.86249 8.19116 2.48988
755 1 3.9459 -6.29933 0.956572
813 1 -9.48361 -4.95409 18.319
137 1 21.1402 -5.74753 1.13936
631 1 3.29669 8.00692 -11.9601
1517 1 21.7029 8.11211 17.0084
1816 1 20.2967 5.54191 2.03068
301 1 20.6056 -5.69209 15.8756
747 1 -4.74159 7.56152 2.9555
374 1 11.145 9.89063 4.40295
338 1 9.24713 9.30251 14.2523
1477 1 22.9236 21.4786 15.5976
779 1 -2.01803 -4.98362 -11.21
1971 1 -3.86284 8.81185 -11.4594
1881 1 10.9291 22.5017 15.3726
1181 1 12.6676 -7.86674 15.5223
525 1 0.277591 20.3716 2.34335
1803 1 15.065 -4.57804 17.1074
1970 1 -39.9792 -3.99984 30.0502
1787 1 -0.141287 9.49085 -11.3047
895 1 30.001 -5.03653 -10.0926
570 1 31.5098 11.1689 3.42263
66 1 15.7229 -31.7884 2.04478
1893 1 5.62514 9.39501 14.3261
1232 1 17.4111 22.27 17.186
1351 1 -22.4858 8.68682 16.6101
406 1 18.8066 -3.16453 -12.4761
1054 1 19.2082 -4.66613 2.07819
1464 1 -6.67526 8.68282 30.9937
34 1 -7.75245 10.189 15.5347
973 1 7.70406 -4.73991 16.2544
386 1 -7.12182 -17.8905 14.8413
485 1 7.59854 -3.79202 15.4502
1641 1 7.20075 10.8815 15.7997
1550 1 34.6906 9.63064 3.29514
1823 1 10.0707 37.2134 4.10267
1660 1 -5.49497 23.6488 -10.9371
883 1 10.0681 -4.15624 15.1053
584 1 11.5377 9.48718 -12.3976
836 1 10.7659 10.3328 1.07303
376 1 25.8797 8.64864 28.9521
1953 1 -2.80135 10.1596 3.25696
2001 1 12.7411 -16.6798 2.45111
1192 1 27.1441 10.5908 15.2955
51 1 -14.5014 22.3072 2.72379
1977 1 11.7385 10.7831 29.4663
390 1 -0.661371 -2.99556 3.92487
925 1 27.9654 -15.8087 -10.7229
230 1 15.706 11.9938 15.4779
72 1 14.1411 -3.0788 -24.9267
774 1 26.4156 -2.04509 3.93546
1341 1 15.2429 11.471 2.75625
1146 1 -12.4103 -2.91281 15.5177
505 1 30.7198 -16.6004 29.6784
59 1 3.63505 11.4014 -9.3723
1799 1 4.21207 -17.0961 2.78785
1167 1 -8.81283 9.83718 15.6138
1852 1 4.33884 10.9072 15.5005
550 1 -7.41658 -1.36985 29.1717
922 1 20.2596 -16.5593 1.22069
1654 1 5.42373 -2.50921 2.00568
1304 1 8.98748 -17.3918 15.3299
1585 1 20.1049 11.4144 29.8446
611 1 -6.9176 9.49894 2.32736
1604 1 8.92752 25.0489 15.3689
10 1 9.2645 -3.80241 -10.9608
628 1 10.2536 -0.897433 2.61557
1589 1 9.50991 11.5205 -12.8593
1401 1 9.80901 -15.7537 15.9876
1947 1 12.2832 -29.4188 2.59369
1608 1 -14.1058 -15.9203 15.6058
582 1 -29.325 -1.90004 -10.1419
1737 1 -13.6607 -1.21601 4.01507
161 1 -11.3326 13.1273 15.7684
241 1 -10.1892 13.4719 15.4833
249 1 3.79292 13.4528 14.4083
208 1 5.00774 -0.847278 3.0587
1836 1 16.8561 -1.49174 15.8371
760 1 4.49011 -1.78995 16.3277
595 1 32.4163 10.9473 16.6728
1824 1 31.4907 -0.807935 16.0185
1388 1 -22.338 0.0990779 16.2787
236 1 6.72909 -0.0295099 2.07798
909 1 7.34111 12.6024 -12.596
1677 1 -6.36126 12.4715 2.09876
19 1 5.47246 11.9524 2.76848
292 1 -7.11632 12.252 16.7141
1801 1 9.67228 12.6556 1.53967
1451 1 8.86029 -1.30015 2.36025
798 1 8.20922 -1.60029 -12.1893
107 1 21.0664 -0.722719 3.0704
703 1 10.6156 -1.36476 1.84227
147 1 49.7664 14.1052 15.7182
987 1 9.4708 13.4383 -11.4076
1510 1 11.5128 26.2075 16.3885
1790 1 10.4204 -0.179161 0.648912
1616 1 -2.28729 -0.765903 1.76953
959 1 -1.17815 26.2363 3.32065
24 1 -0.579762 -1.26163 2.29612
864 1 12.5022 -0.221639 -12.5544
231 1 -0.409079 27.0629 16.2219
1626 1 0.97358 -13.1403 17.5479
1155 1 3.07476 13.6267 -10.8686
661 1 3.36117 28.7641 17.8357
334 1 2.24032 0.303524 3.96166
1703 1 -11.782 3.11326 3.17747
1294 1 -9.44754 1.92567 -8.59598
317 1 3.96156 -12.2403 1.04211
1109 1 32.2364 15.2658 3.00508
1088 1 -7.13803 26.5553 3.82992
596 1 -8.15542 14.6288 2.4143
269 1 5.79481 1.50501 -8.07655
904 1 -8.06917 0.54352 4.8898
728 1 8.62731 29.6904 2.11631
1402 1 20.7921 -12.9129 16.2186
506 1 7.10208 15.3051 -10.504
1937 1 9.31411 28.921 29.8185
1399 1 9.46843 13.9728 17.1278
464 1 -3.11303 13.6361 17.1365
98 1 -1.86378 0.777734 3.24791
867 1 -1.21962 1.08869 17.7137
1111 1 26.2986 -27.1104 3.30939
1990 1 13.4778 16.652 4.2965
634 1 14.3332 1.16385 2.97791
333 1 17.9511 2.00028 4.04843
1516 1 16.3494 29.538 4.04055
614 1 14.8964 1.62609 15.9404
1731 1 -12.7203 29.1798 17.6965
629 1 4.65331 3.17787 4.58044
1047 1 33.4062 3.43 17.6619
65 1 5.53291 17.012 16.7522
2048 1 6.30936 15.7751 18.4348
1240 1 6.78734 -11.1717 3.90977
1238 1 8.70493 1.47299 3.96283
1467 1 35.7677 3.53357 16.0503
1423 1 -18.4977 2.67422 4.1828
1375 1 7.51459 -24.4523 -10.402
1764 1 -3.95221 16.1513 -23.6195
1153 1 23.3723 -12.4291 -10.2833
26 1 9.65877 1.64902 -8.88128
1006 1 -29.782 29.1174 30.6056
1638 1 23.9474 29.0272 29.9996
2035 1 -14.8481 2.37709 3.69277
1906 1 -2.22018 2.53421 -11.3535
1049 1 -14.8677 -23.8935 4.22749
1926 1 -0.35974 3.16353 30.5867
606 1 27.1134 15.4213 3.88732
1738 1 -0.733086 -10.4012 18.9079
665 1 27.7833 3.64087 17.4593
394 1 1.37141 3.79759 17.8289
425 1 1.09475 3.82655 -10.6024
1079 1 3.92171 -23.0634 -10.4011
1573 1 15.6546 -24.6193 -9.15552
1565 1 2.53855 5.848 43.902
422 1 4.97693 3.72526 -23.6122
1547 1 19.1322 -20.7584 19.0842
1643 1 4.47561 -8.33229 16.809
1872 1 -8.09855 18.2447 17.0505
133 1 -8.05797 17.033 -8.74338
33 1 -6.80483 3.99049 -10.0911
680 1 -8.95389 -8.93745 17.6035
838 1 -6.35682 -11.3552 -11.2883
86 1 48.863 -9.50699 16.7681
1939 1 8.01498 -9.99094 19.0409
1646 1 11.7103 -10.759 3.34664
1326 1 -19.0037 17.238 17.5242
1060 1 -18.031 3.58745 -9.36019
784 1 10.1856 4.58668 -23.8239
328 1 9.96476 -9.14243 18.2657
143 1 -2.37404 -23.2569 -10.3192
1691 1 -2.36056 4.71991 4.66154
862 1 -0.501657 3.92059 2.48256
1245 1 11.5368 3.76436 18.0125
1688 1 13.0061 4.99611 16.8997
1730 1 -13.2805 4.5224 2.73391
1627 1 -12.956 -9.04623 4.49787
1562 1 14.6386 -22.6729 30.8612
1932 1 13.4629 -23.1403 18.2077
1110 1 29.0594 -8.23517 17.5377
1508 1 -11.2731 17.7416 3.01469
170 1 18.3047 5.59699 -9.02965
684 1 2.34493 20.4628 -10.7222
713 1 19.7337 34.2405 -7.39037
1536 1 4.64284 20.0559 -11.9425
1889 1 19.3817 18.951 19.8843
1869 1 6.38194 19.8338 19.2036
104 1 6.73684 5.75477 18.1561
706 1 5.66646 19.2123 -10.7707
718 1 5.70086 19.0879 18.5288
1436 1 22.8144 4.45684 30.9807
1986 1 7.74811 5.89404 4.07781
705 1 9.65749 4.30795 16.2266
76 1 9.77176 20.1561 3.0679
21 1 -4.04908 -8.22632 -9.87208
843 1 67.2937 5.5857 18.0322
9 1 24.9262 18.8432 3.63226
1716 1 25.9186 -22.7507 4.14294
356 1 27.1514 19.8267 16.9843
1251 1 -0.590566 18.667 32.5111
2041 1 13.028 6.68957 19.6441
1021 1 27.2042 33.3072 -8.45694
1675 1 14.4247 6.07808 4.48429
101 1 3.41176 7.09409 -8.44357
1762 1 2.73773 6.61838 -8.99552
1007 1 2.41665 7.26114 -9.6723
1940 1 18.2762 7.86915 17.5493
1335 1 5.02326 21.2649 5.82117
1258 1 -22.0803 20.7646 3.50362
244 1 -23.7347 6.48211 3.34873
1257 1 18.1454 20.4965 4.21073
1673 1 -7.5054 -6.40231 16.4948
726 1 8.32383 19.9126 -8.69838
571 1 9.32597 7.01548 3.89721
1083 1 22.2036 -7.02548 16.7582
915 1 10.2284 19.2536 16.5235
1750 1 36.3385 -5.69225 4.28973
947 1 10.9547 7.93297 17.6668
537 1 11.3408 8.83247 3.67233
771 1 12.8346 -20.0164 17.9426
896 1 11.4763 -6.3087 2.00457
1859 1 -1.12805 20.2471 18.6997
622 1 0.342622 20.8717 4.63155
1222 1 0.725488 -6.85508 16.9579
2040 1 16.1057 -4.12533 3.02752
924 1 16.8308 -5.21117 18.3663
749 1 2.10358 -4.63753 18.1435
52 1 16.1212 7.75593 4.84278
144 1 -23.7432 9.27611 5.46935
1061 1 3.44771 -8.2996 3.61186
2016 1 16.556 9.63545 31.7592
1398 1 19.1373 -5.76342 4.35606
1178 1 19.6837 7.36757 5.0344
1269 1 7.8569 20.8159 18.5526
1348 1 8.065 -4.52518 17.6102
821 1 6.30842 22.2658 2.78526
1411 1 -5.81547 -3.35947 19.4928
805 1 -4.85289 22.3525 -10.5422
2047 1 21.1386 21.368 31.4186
55 1 22.7744 9.44592 -9.51339
1802 1 9.98526 9.73867 18.9009
998 1 -15.3415 10.5261 3.23704
203 1 -29.4618 22.5073 18.4335
1262 1 -3.0731 -4.71347 18.5329
515 1 -1.72371 7.89554 16.8275
124 1 12.4405 9.88064 -11.9262
435 1 -0.213554 7.67723 3.48664
1299 1 -1.2798 8.4239 17.5725
1841 1 28.2845 -3.08229 -10.184
1875 1 13.8766 -18.5295 3.45196
1609 1 0.158659 9.85683 3.38163
1179 1 15.5134 -3.63457 -9.72889
730 1 16.4462 38.5808 -10.4555
1615 1 2.25495 -3.67899 19.2975
1000 1 2.63829 24.3543 17.979
1921 1 -21.7833 8.03827 17.0196
576 1 17.1122 10.3972 -10.2788
556 1 4.99694 9.07773 4.10917
1611 1 7.05016 -3.39058 17.7404
1204 1 19.4271 -3.30786 17.3929
259 1 -7.42556 38.6426 -10.1773
1317 1 6.35851 7.68311 3.85374
253 1 -5.61937 10.5063 3.7512
551 1 -4.37194 -4.29403 5.89692
1214 1 36.4479 37.87 -9.62825
1600 1 21.8866 -3.85581 4.8176
637 1 -3.29001 -3.61956 2.34192
1102 1 10.8422 10.8778 17.641
1066 1 25.6726 -16.3513 4.47765
553 1 11.0501 -15.9163 2.28602
865 1 -1.48276 9.92374 17.8739
222 1 -0.877062 9.72798 3.35767
868 1 -0.499732 11.4821 30.378
816 1 16.3626 25.6978 3.91131
1820 1 0.189381 -3.34061 18.0839
759 1 2.25563 12.7724 18.3514
1577 1 -8.67648 -1.71111 18.5961
964 1 4.49766 10.2648 4.12894
1647 1 5.24287 -2.43435 17.8101
561 1 5.06673 9.6946 2.91164
1498 1 6.30582 9.40748 3.54914
535 1 -9.0318 25.8044 -9.80084
1632 1 31.3003 -14.8447 4.68324
1093 1 5.62936 -1.27036 17.536
965 1 -6.39924 -2.59249 3.1967
87 1 -6.32764 11.2196 17.8198
413 1 21.6105 11.5913 2.56598
1513 1 7.40087 12.1077 17.2869
988 1 -17.3678 -2.49346 4.43072
888 1 37.9455 -15.5762 3.1645
1656 1 9.77373 -3.07967 3.31359
48 1 8.66846 12.4289 17.9177
368 1 11.6746 13.4463 3.5307
1333 1 10.8309 -1.8612 18.2285
1915 1 23.4689 -1.49403 4.26145
174 1 13.0124 23.9699 18.7178
1924 1 -0.200934 11.4976 4.56409
683 1 25.6899 12.2391 4.61854
247 1 0.672686 -13.6832 16.4223
1766 1 14.515 13.0758 17.4934
1329 1 0.316291 -1.04479 -10.8528
786 1 29.6826 -14.9386 16.635
1775 1 17.6593 27.1481 30.6651
886 1 3.9315 14.6824 -10.271
1843 1 17.3491 -1.37583 3.28729
1454 1 18.3381 26.9214 4.30838
1514 1 20.2855 -3.3154 16.7585
2021 1 -7.10214 13.9639 18.4095
1023 1 7.0397 0.0716219 -10.053
129 1 22.4613 0.891718 3.02652
504 1 49.3997 11.6013 3.54815
688 1 8.77447 -2.82539 2.85476
1757 1 -4.17208 -2.08722 -10.3338
700 1 8.28473 -1.03155 3.27099
432 1 23.7241 13.2527 4.77431
1124 1 -3.04667 13.6316 29.0576
642 1 23.5097 -0.883212 -10.1351
829 1 25.3564 40.6733 18.4403
304 1 -15.0668 13.2445 16.0254
1043 1 -0.193394 -0.367926 17.3975
1185 1 -13.5593 -0.0499062 -9.0705
75 1 -12.3214 -0.134402 -9.02378
2020 1 0.0881087 14.8814 19.412
648 1 16.0626 -13.0065 4.87903
707 1 1.84367 1.21888 -9.67921
359 1 16.8702 -0.351983 -8.81727
96 1 2.83671 1.61696 19.0255
115 1 4.22005 13.5272 32.5952
1715 1 3.28513 -13.595 3.93338
1555 1 5.13735 0.160583 5.78059
1103 1 18.8362 1.23907 4.10683
870 1 -8.83499 -13.2718 3.68954
1991 1 -9.52276 27.5144 6.34658
290 1 -8.01946 1.88062 6.65939
372 1 -7.36944 0.564376 -7.87769
1740 1 6.98487 1.0601 17.832
1377 1 -6.73365 -12.4463 5.37172
254 1 21.4861 27.4835 5.06073
1581 1 -5.38734 -0.888219 5.22872
1519 1 23.6534 0.506564 31.6885
1664 1 23.6333 14.3152 5.32759
1437 1 10.5909 -12.6598 17.3289
28 1 10.6852 1.24937 4.68443
370 1 11.6563 29.2268 -9.48016
549 1 -16.585 -12.3052 -8.01334
1620 1 -1.77692 0.617254 5.14984
546 1 -2.8041 0.282144 18.9633
347 1 27.2184 14.4213 3.69664
1724 1 13.1783 13.9969 5.35177
956 1 -2.06593 28.3668 -7.5368
99 1 -0.102757 -11.0772 -35.3725
1634 1 1.01319 14.3616 32.4983
1171 1 14.467 2.95777 4.52621
751 1 0.999448 16.4062 -7.94664
134 1 3.83334 31.3864 -23.0761
361 1 15.8759 2.61582 5.52417
162 1 3.85528 18.4169 -21.1604
43 1 17.7272 -10.9274 5.82259
811 1 19.0556 -24.6976 3.86151
1202 1 17.0588 2.45457 18.3892
1649 1 18.4544 18.3536 32.3356
358 1 4.64866 0.659174 18.4503
523 1 18.8133 15.8041 32.0911
1911 1 33.9925 3.15517 18.4624
844 1 8.25696 2.69755 4.93566
463 1 7.53873 3.84208 4.37599
1104 1 21.4331 2.07166 -9.45928
491 1 -5.78285 15.6196 -21.5101
1568 1 9.75773 1.82135 19.4238
623 1 24.3459 -11.5259 4.07438
1788 1 11.7982 15.3605 5.4595
146 1 10.389 17.3892 4.00911
1978 1 0.089123 1.07048 18.3871
997 1 -0.990575 43.4278 -8.95929
1072 1 -2.22465 2.80718 4.43394
2025 1 0.527232 3.85553 -8.49577
543 1 12.8007 -10.6837 6.31061
676 1 -1.7226 3.22801 -8.44469
900 1 2.25673 -9.69455 6.71961
1718 1 15.2324 -10.1281 19.0844
389 1 17.389 -8.77523 4.87446
950 1 3.12743 30.7105 -21.6752
192 1 17.6513 19.881 6.37226
472 1 4.61801 5.57626 5.63566
891 1 16.459 4.58612 3.82351
512 1 19.5552 16.2608 5.70841
1461 1 -7.73534 -9.86867 5.81802
427 1 -7.20973 -9.12613 20.048
357 1 5.65021 -9.40417 4.51506
1457 1 6.59337 32.0444 18.6675
315 1 20.8636 4.05921 5.74073
1534 1 -5.77959 18.4795 3.96813
1211 1 22.3754 -9.42718 32.2921
211 1 -3.60571 16.6652 -8.91804
559 1 23.4009 -9.72931 6.63105
60 1 24.3135 5.5689 18.3407
469 1 -2.97136 32.3732 5.5524
310 1 -1.94074 30.7824 -7.01019
20 1 0.816834 4.99733 19.1402
313 1 27.3903 18.3139 -7.53058
256 1 14.1593 19.5923 -7.49086
788 1 15.5071 -9.04819 4.83582
1371 1 1.49552 -7.56416 -8.29653
1612 1 2.01305 -8.53576 5.7503
858 1 -8.87573 18.8577 6.75984
1151 1 30.3429 4.72081 5.67977
616 1 5.38366 4.68271 -6.16252
351 1 16.3461 6.2259 3.8003
1629 1 18.0088 6.92486 20.8235
721 1 20.7993 18.9035 -7.90574
286 1 6.40079 18.4724 -6.292
917 1 19.503 -8.04603 -5.43085
1962 1 8.70475 5.26782 4.45359
264 1 9.78833 32.0189 -7.97857
1018 1 9.86551 35.0404 4.57603
497 1 -5.91462 4.73582 -8.55155
3 1 -3.17917 -6.69741 4.238
1842 1 9.61045 6.17433 18.3016
508 1 8.96797 19.157 19.188
1450 1 11.1727 6.86705 3.10188
191 1 10.6709 5.97067 -10.0031
601 1 11.6731 19.3506 -7.23372
1065 1 -1.02242 19.308 5.82995
1013 1 25.4855 32.9335 5.14347
1831 1 25.6185 -9.29388 19.1997
1833 1 12.5832 18.3338 20.0345
974 1 1.122 18.6482 -7.17133
1320 1 0.301928 6.88582 5.64932
671 1 26.6699 8.17451 5.63971
1312 1 0.892743 8.3673 18.3262
539 1 1.36033 20.9008 -9.1374
1493 1 30.7082 6.96905 6.32367
2038 1 -9.24251 7.63759 32.1912
263 1 15.2166 7.44115 5.58672
1958 1 -10.043 19.657 -9.2957
1559 1 2.4833 5.50725 18.4846
1719 1 19.4059 5.77397 -6.60646
262 1 5.08973 8.34085 -7.18288
1292 1 20.5125 8.00778 32.2686
2014 1 20.0246 21.5018 19.5373
237 1 -6.78025 -7.354 -10.1465
1862 1 20.4108 34.0919 18.2124
708 1 -19.1195 6.98747 17.6227
1174 1 7.9288 5.96821 19.8357
1813 1 -3.57844 -5.00386 3.86993
1684 1 9.93104 7.71115 17.1391
456 1 -4.74763 -6.65266 4.82082
1650 1 9.9099 6.74621 19.2072
189 1 23.3225 8.72353 -8.79693
295 1 -2.77695 19.9537 5.36525
1747 1 -1.88412 21.4932 4.64437
38 1 0.03718 5.32948 -9.56057
1706 1 -15.4314 6.49205 5.91196
278 1 -0.333665 -19.0112 4.34182
1175 1 0.0290775 -4.72231 -8.61448
1806 1 15.3822 -5.39948 17.7363
579 1 28.7278 9.64726 4.98895
566 1 13.9488 -5.74791 -8.21657
972 1 -25.5874 22.1154 5.57338
1995 1 -10.2282 21.7632 5.66287
1846 1 -8.59501 23.142 18.7043
1476 1 5.57409 8.43634 5.21982
1552 1 -8.59091 -4.19887 6.3332
1313 1 -7.44691 22.3809 -9.42628
710 1 7.27835 22.9859 4.52408
750 1 6.98925 8.67079 5.80116
597 1 7.958 8.35097 4.7046
1121 1 7.79143 -5.98118 7.83022
2027 1 8.02854 -4.5169 -8.09046
302 1 7.71834 21.5803 -8.00443
775 1 10.1958 8.79151 19.5272
1117 1 8.77773 8.15028 5.83626
1667 1 -3.61617 21.2992 20.3591
1316 1 -1.12171 -4.69448 4.84984
1163 1 -2.52235 21.9841 5.55476
2000 1 10.2923 21.4736 5.6137
1796 1 -15.3371 8.48698 6.08209
1934 1 -2.75324 -6.41183 -8.60995
1648 1 -0.792844 9.5017 5.77419
429 1 28.1201 -4.30127 4.24642
897 1 -14.0225 10.959 5.80438
2005 1 -0.464115 9.51576 -9.37695
113 1 15.3306 22.961 6.43746
941 1 0.798058 -2.92128 20.7081
809 1 -25.9995 -16.6139 -8.97729
1876 1 14.9924 23.9847 6.08989
1878 1 18.9231 -3.15486 45.8716
153 1 3.53165 10.245 -8.22111
426 1 3.21217 37.9469 6.63709
739 1 6.9687 37.4925 5.2793
657 1 6.14764 23.4734 4.55618
2009 1 -20.3067 11.3664 18.8915
1781 1 6.06008 22.9213 -8.14254
1479 1 -20.8347 37.3955 19.9954
1433 1 21.1392 9.42545 20.0685
545 1 -16.467 22.0867 -5.61255
1106 1 -15.8879 10.4899 5.21349
1946 1 25.7756 23.2848 -7.18629
1942 1 10.8067 23.5725 5.78139
992 1 11.6244 10.6725 20.1436
1805 1 26.379 10.4983 6.73864
1594 1 12.3229 -3.06218 5.68233
1985 1 -13.2542 -3.43452 19.002
1393 1 -15.5113 9.40142 19.2462
1077 1 14.449 -15.9131 4.12673
1206 1 1.14516 -1.41881 30.7153
235 1 0.776123 24.9969 -8.29883
1223 1 1.91061 -2.48975 3.78746
1394 1 0.079126 -15.3137 33.3703
804 1 -11.4062 -2.31778 18.6001
273 1 15.2 12.0785 4.60814
1343 1 4.0961 11.4225 5.28227
165 1 -11.0889 12.6368 -7.81602
1814 1 -10.6477 12.0311 18.6838
1624 1 3.64968 -0.947702 19.3022
1156 1 -8.04009 39.791 -7.4227
81 1 19.8919 -2.66928 4.61362
1743 1 18.9419 11.2565 5.71851
473 1 6.41673 -0.583458 -21.5385
284 1 20.0193 -15.496 19.2986
1631 1 19.7278 10.5532 -8.07342
1879 1 19.6122 -2.51442 6.7782
975 1 -5.41772 -2.47966 32.1789
910 1 23.8731 10.7077 -8.35014
1840 1 -3.54993 -1.78513 -8.30114
1133 1 -19.6098 -15.2558 4.75268
577 1 11.0333 -2.24532 -7.77095
1674 1 -14.8103 -2.1599 18.99
1993 1 -13.1935 26.0239 4.90215
196 1 -13.6312 -0.625624 -8.15584
168 1 12.7214 -1.2067 5.7805
1736 1 2.82649 26.6744 17.3468
1663 1 15.4549 -0.473757 -10.3266
1662 1 2.19377 13.6185 5.57745
1969 1 3.5079 28.0221 18.5629
2029 1 -9.15909 26.5186 6.21758
874 1 33.0801 13.481 -9.5075
1644 1 5.40966 -0.729257 5.03834
1927 1 -5.92272 -0.724316 4.11757
285 1 19.6877 -14.1415 6.91588
1693 1 20.6726 13.6328 20.6151
921 1 6.49549 1.04529 6.62013
154 1 6.73647 12.152 -20.6961
340 1 -4.59394 -0.375962 4.48863
1184 1 21.9417 0.269312 -9.5796
355 1 -7.08562 -15.4079 4.22047
1266 1 6.87878 12.8573 4.84516
944 1 -4.30825 12.4969 5.21657
1558 1 22.4926 0.0548783 19.3032
1255 1 -18.734 -0.901733 19.8227
1590 1 -2.92207 -0.958183 3.88029
681 1 11.5383 -12.9128 4.1987
943 1 -2.0496 -1.34842 -7.92593
88 1 13.6854 27.3719 -7.22324
1073 1 12.8948 -0.837007 -9.01284
1586 1 -12.7785 14.3029 8.16866
1938 1 1.55016 13.7715 20.8505
1046 1 1.44729 -1.17348 5.60808
246 1 -11.9184 15.4892 -22.4714
1575 1 -24.8323 0.217617 6.50502
852 1 -24.1078 1.16504 6.4304
1818 1 3.41457 13.9466 -6.55682
354 1 -9.63707 14.7764 19.3013
626 1 5.17507 0.153293 -20.5576
392 1 7.08665 14.9331 7.57021
345 1 8.69994 15.3269 5.10113
1190 1 21.1507 -12.4279 -7.28615
79 1 8.03839 2.04375 6.89779
1303 1 -6.41246 13.8111 -5.56135
117 1 -5.53711 0.906909 -35.5836
1064 1 9.12086 0.611985 4.83473
1108 1 22.3608 -13.2489 8.59426
646 1 -3.22973 15.1024 21.4373
1603 1 -1.13357 27.2663 33.9563
1539 1 12.5314 0.0136767 -9.36942
752 1 0.220261 2.0463 -8.79219
1331 1 -12.2404 2.0372 6.35892
116 1 14.7808 27.4237 6.10509
723 1 1.89844 0.991102 -7.9298
1249 1 14.7571 1.04922 20.0745
1005 1 1.6352 16.825 33.851
1651 1 16.6037 2.12724 33.6184
741 1 4.82554 15.6918 19.8143
996 1 -9.44962 15.9809 7.48947
378 1 5.0154 -10.4008 6.14685
1143 1 19.3769 17.6089 -6.81481
221 1 18.9369 16.349 7.10477
1107 1 20.5064 -11.5967 20.2769
1929 1 -5.8799 30.3014 7.47668
1839 1 8.98625 -25.4413 20.1399
2042 1 7.73381 16.5936 19.8318
1618 1 -4.76882 17.5731 33.4037
513 1 10.8968 -25.4503 6.56626
1176 1 22.1225 -12.6561 6.69267
1446 1 -16.4083 -11.3965 5.19604
1610 1 10.2273 14.8739 6.5943