ITEM: TIMESTEP
220000
ITEM: NUMBER OF ATOMS
2048
ITEM: BOX BOUNDS pp pp pp
0.0000000000000000e+00 1.3679807573413575e+01
0.0000000000000000e+00 1.3679807573413575e+01
0.0000000000000000e+00 1.3679807573413575e+01
ITEM: ATOMS id type xu yu zu
606 1 27.0631 15.6712 1.6716
29 1 27.9847 0.114522 15.2434
1437 1 16.2463 -12.9891 14.4787
1727 1 14.5524 1.90075 14.1482
1844 1 16.0696 -14.7325 15.4404
587 1 2.66817 -0.0145493 13.3198
1197 1 3.70658 28.6234 0.21528
1382 1 3.53691 0.788112 -12.4185
104 1 6.8386 1.1623 15.1574
258 1 5.52474 14.6257 -12.2665
431 1 3.9435 -12.8556 -0.777107
1920 1 34.3923 29.6906 27.8448
1801 1 7.0463 14.9417 0.126941
1925 1 21.3647 29.8354 1.23662
112 1 -3.51436 14.2261 14.7584
432 1 22.7521 13.7898 0.950875
393 1 9.94242 2.43121 0.955529
688 1 10.78 0.213968 0.287157
1604 1 10.3023 28.0436 13.2297
641 1 -1.8065 2.21816 13.6784
882 1 12.6585 1.60711 14.2447
193 1 -16.3348 13.3693 1.45413
26 1 12.932 1.00421 -11.9646
125 1 0.155612 1.12842 -12.6742
1938 1 0.864075 14.4007 14.1719
1478 1 14.3358 14.4965 26.7832
1715 1 1.01911 -9.74043 -0.33447
1733 1 2.63968 28.6855 1.75671
8 1 -11.8238 2.31362 15.0157
301 1 16.4229 1.96917 16.1542
909 1 1.91613 16.3176 -11.2424
1332 1 15.6474 3.16506 13.1801
16 1 16.689 2.0641 28.2661
810 1 -9.30534 -11.9209 14.7745
794 1 2.92835 2.54966 27.2164
201 1 17.655 2.30435 -0.465862
787 1 5.22753 -11.9932 0.530748
1687 1 -7.03328 2.2198 42.4494
1512 1 5.97616 2.63506 0.690005
1764 1 -6.56393 16.4701 -28.1793
965 1 -4.4349 1.42231 1.10106
1036 1 -3.94499 17.5838 1.14294
1723 1 9.04701 17.0725 14.1668
732 1 10.4702 16.9568 14.6263
552 1 -3.88414 3.17068 -0.128817
854 1 -3.36989 -12.0183 1.54768
2048 1 11.3993 15.8229 14.6247
469 1 -1.18891 30.5479 13.0559
132 1 12.2027 1.2659 13.1594
249 1 -2.18782 16.8019 14.4122
1245 1 13.7895 3.08787 15.869
1757 1 -1.71053 2.63938 -11.8131
1149 1 -0.654112 2.29367 -0.405414
1350 1 -12.6818 14.9306 15.1532
113 1 13.6304 16.1927 0.569072
1862 1 14.4108 31.7342 14.3755
834 1 1.17627 -10.5304 14.2209
718 1 2.7403 17.8313 15.0588
1031 1 -12.8979 -8.18441 -13.7219
1822 1 -12.0375 5.39493 14.364
906 1 1.95414 31.0535 14.0373
1531 1 -11.1909 2.90173 0.759075
1921 1 -24.6224 5.39505 14.8951
330 1 16.6882 -9.83575 -0.00484122
405 1 3.49685 18.1169 -13
1389 1 -7.9134 16.9275 -13.7796
1480 1 -7.59876 31.8383 -0.170457
596 1 -8.84745 16.5388 0.750918
1857 1 2.58966 -8.90585 14.1152
1726 1 -8.36651 43.3613 27.0415
236 1 7.21976 5.15193 1.82575
913 1 6.8003 -10.4034 15.0202
743 1 -18.7342 31.6579 0.756755
878 1 23.5397 18.141 13.9011
1899 1 -3.44516 3.90894 26.4958
1402 1 22.836 -8.52288 14.9849
1576 1 -2.70775 4.3234 14.4983
1679 1 11.7027 17.7002 27.0512
845 1 -2.70495 2.65032 -11.7981
63 1 10.8154 -10.1231 13.6951
1941 1 0.491206 17.236 1.36132
1035 1 13.2489 4.29689 1.48566
577 1 13.3735 4.18608 0.429062
1484 1 0.0362131 5.22681 0.622948
1211 1 29.6973 -6.79786 31.1574
1537 1 15.1564 -7.22263 13.8729
1901 1 4.34872 5.52505 28.0004
90 1 5.91377 -9.92168 -14.7399
1761 1 5.20187 5.32676 -0.186141
378 1 6.13689 -7.65996 0.992535
1721 1 20.9256 6.02896 15.0265
237 1 -5.37124 -8.88004 -13.8721
74 1 -4.83162 19.3398 14.0351
1260 1 -3.04815 18.4475 13.35
289 1 23.5126 -7.52853 -25.3823
460 1 11.4012 -8.41908 28.7918
2034 1 10.4377 32.6109 0.734591
1017 1 12.4162 35.0463 -12.7898
1434 1 12.3902 3.90064 0.692777
122 1 12.8729 16.7321 -11.9653
1543 1 -15.075 -8.05184 0.994999
630 1 16.9788 -7.97347 30.2783
1810 1 1.7958 7.99439 14.0777
781 1 13.8702 -7.3041 0.24276
1167 1 -9.28136 8.55036 16.2576
1960 1 0.924112 20.894 14.5016
1274 1 3.0652 20.9252 1.46296
1529 1 -10.6347 6.75938 3.05291
1374 1 -24.0171 -7.0783 13.8951
740 1 3.72583 7.64863 14.0554
1059 1 5.78437 6.86355 15.3639
1129 1 18.4925 -6.83356 -11.8153
705 1 4.09469 7.11833 14.8716
1008 1 20.9214 6.44568 -0.522226
1497 1 20.3831 6.94239 1.14994
615 1 7.61864 -6.03855 14.0997
783 1 -4.67216 -20.4846 -13.3052
2023 1 -5.85719 6.69284 -13.0162
829 1 24.6007 34.3776 14.3087
1700 1 9.63821 -21.4198 28.3334
1066 1 24.1628 -19.3424 1.09081
1198 1 -1.19874 21.4018 -0.229328
674 1 12.1356 20.4334 14.8768
339 1 13.4469 35.0751 14.0612
53 1 26.9578 5.73241 15.1023
1087 1 1.03054 8.81229 1.87059
1462 1 -11.592 8.80961 -12.3818
149 1 -12.345 21.5136 -24.6756
670 1 -11.4532 7.07288 -11.5293
727 1 2.57285 -4.57054 2.07721
435 1 1.81028 7.87305 1.34566
622 1 4.33997 23.0801 3.25425
1178 1 17.5948 8.931 0.439434
1302 1 18.6763 6.32412 0.823934
1313 1 -7.04156 22.4531 -11.032
314 1 7.25156 9.01344 -25.5617
1796 1 -21.2123 9.43123 1.9618
152 1 7.31283 9.76186 0.167656
1075 1 20.0763 7.71452 0.690067
1759 1 20.2996 21.5219 -11.854
401 1 21.3427 21.6319 1.48594
1323 1 9.31654 -4.64413 -0.0681822
1883 1 7.42112 8.28003 16.1132
1784 1 8.87173 22.4042 14.5265
1299 1 -4.27584 8.08172 15.1493
818 1 24.1839 -5.49077 -0.0500799
1225 1 25.1152 8.81327 2.67769
1579 1 13.8341 9.34582 -0.785779
826 1 -0.354879 8.57903 1.27901
837 1 0.702021 -5.0522 2.96317
661 1 0.619888 21.6338 15.1853
537 1 11.8284 8.99921 1.58363
438 1 28.1976 9.82894 1.12435
148 1 1.63567 22.8223 27.6219
1000 1 -0.142299 24.4118 13.5669
813 1 -10.7408 -5.51659 14.6758
119 1 1.54451 23.8633 14.0842
632 1 30.9664 10.1511 -13.6718
1722 1 32.2768 10.028 -0.127269
534 1 -10.4921 -4.85241 -10.8223
1593 1 16.6138 -5.40944 40.9216
1068 1 3.41719 -4.69026 15.116
1118 1 5.54936 10.6419 0.585414
847 1 -21.5627 -4.02534 14.6871
1020 1 6.89044 -4.57153 13.1165
165 1 -6.64534 8.55108 -13.273
809 1 -18.9142 -17.6125 -0.852388
246 1 -7.7579 8.61577 -27.4402
849 1 22.2119 -16.5216 -0.709523
655 1 8.51943 9.6996 -13.2668
2024 1 -4.68224 12.6984 13.7904
1043 1 -3.39441 -4.26473 13.3666
51 1 -17.2537 24.6262 1.15551
999 1 -15.7752 22.4957 -0.113856
52 1 12.1836 9.66211 2.33226
2033 1 12.4537 22.3333 0.501854
1116 1 -0.283821 -4.99863 0.027208
1949 1 12.7305 9.37405 1.32269
792 1 27.5132 -16.7849 15.4902
121 1 1.54484 25.1778 0.435082
1088 1 0.938063 24.8737 2.07916
1766 1 13.4933 9.96309 14.633
484 1 2.02933 -2.06411 -11.5421
396 1 16.6876 23.0871 -13.3213
1164 1 17.5886 10.6834 14.8972
1494 1 17.4592 10.7274 16.0521
1270 1 18.2213 -16.6446 14.2047
1083 1 19.4766 -1.21977 14.7124
1135 1 -7.04315 -3.1314 13.9668
1278 1 19.6992 24.2569 1.61494
1306 1 -9.15721 26.1524 28.1251
1226 1 32.5999 12.3615 12.4795
547 1 -6.7631 -2.72904 1.166
1936 1 -5.96157 10.4526 29.1266
1758 1 9.87874 26.0663 -0.108296
644 1 -6.28684 12.0572 14.1231
1696 1 24.3404 12.749 0.548223
692 1 -4.24338 -1.84961 0.752665
110 1 24.1831 -2.14204 0.309182
1714 1 25.935 -3.45945 14.1338
377 1 37.7566 9.90735 0.97389
390 1 -2.24202 -2.81366 0.388875
1160 1 -0.541409 -4.03057 13.5935
925 1 24.9677 -15.5688 -12.4225
1269 1 0.16865 11.673 15.2915
1473 1 29.0214 26.2706 14.2493
884 1 14.9533 -1.68142 1.55141
24 1 2.8596 -2.58915 1.58312
1824 1 31.0311 -1.32028 13.8539
1818 1 2.67621 12.8642 0.757669
1281 1 -12.2628 -14.2736 1.85666
1317 1 3.95342 11.8135 1.44177
241 1 -11.175 10.3877 14.4141
2043 1 17.4243 13.157 14.8622
1415 1 5.42547 14.2919 0.383797
78 1 5.00359 -13.9821 -11.9259
33 1 -7.29414 0.266357 -11.9559
1741 1 7.45139 0.391141 28.2121
553 1 8.17141 -14.1098 0.277311
935 1 6.46462 -0.6082 0.31938
115 1 8.60868 13.9732 27.1907
1753 1 10.4776 13.2372 -1.25606
1102 1 9.91221 13.2538 14.2792
764 1 -3.92221 27.236 13.2758
529 1 -15.5575 -0.342488 -13.2222
407 1 12.1931 13.0883 15.1268
1159 1 -14.4596 -13.0918 27.2193
1681 1 -27.8724 12.7255 14.4611
1337 1 13.66 -0.337715 2.42787
331 1 14.6766 13.2703 -13.715
614 1 15.4986 1.34822 14.5492
1430 1 28.2313 0.277972 -11.0268
607 1 29.0968 14.1624 1.76908
38 1 0.180285 13.541 -10.2374
466 1 -0.0120967 15.523 2.70022
1515 1 15.4349 15.2954 2.11947
1106 1 -11.6027 13.4528 2.55222
761 1 16.5656 -0.141538 1.66949
1643 1 4.22912 -13.1828 15.7253
1209 1 3.53604 1.74093 1.77825
1223 1 6.31933 1.31346 2.45825
271 1 22.0121 0.24046 -12.0923
1022 1 22.1478 -13.5945 2.62079
357 1 7.67549 0.797403 2.89417
1283 1 23.7027 0.729042 16.3975
949 1 -5.44645 -1.04787 2.003
1256 1 -16.9041 1.35802 0.41707
1070 1 10.9132 -12.2514 15.932
1597 1 11.9837 1.46179 1.36656
1479 1 -15.7519 28.5073 16.8761
663 1 11.2165 0.722988 14.861
320 1 0.234725 0.900296 2.10362
1791 1 39.992 29.099 3.16766
302 1 0.559651 26.4945 -12.4325
1041 1 -12.4088 -37.5505 2.34429
1495 1 14.4885 16.2206 -10.8699
1735 1 -11.2922 3.82073 3.58441
457 1 -11.6244 31.487 2.25631
557 1 15.3115 3.17167 -10.4163
206 1 2.80611 16.7009 15.5295
1305 1 -9.81363 2.48056 0.621724
1871 1 4.57051 1.63905 15.8022
399 1 -21.5483 17.1117 1.61667
719 1 4.49948 2.6079 1.67471
1634 1 7.24707 15.8531 29.5636
139 1 7.94923 17.2373 -13.3766
1637 1 8.2702 2.08557 16.1595
427 1 -6.13975 -11.546 16.962
1558 1 22.9123 0.65045 15.6385
811 1 23.9468 -25.2333 2.48172
1630 1 22.5656 -10.8012 -12.1286
680 1 -4.40383 -11.9473 15.7872
876 1 12.5014 43.6526 0.712598
228 1 -3.78403 16.6872 1.89008
709 1 -1.74658 2.37073 -10.0323
1404 1 -1.98043 -24.3239 16.5355
1419 1 26.6681 16.2025 17.452
10 1 11.6544 1.99235 -11.0459
1837 1 -1.12372 -9.72439 29.8238
1892 1 12.7029 2.79886 16.5003
5 1 1.91909 3.49594 -12.2303
1399 1 13.7968 16.7513 16.9788
1620 1 1.84469 4.77437 1.52314
487 1 -11.9038 5.07614 -11.0497
1940 1 15.4692 6.01468 15.3668
679 1 3.79929 17.0378 -12.6742
1777 1 16.7072 31.1032 16.1937
1750 1 45.1157 -8.12152 2.15895
1690 1 5.70425 3.93478 0.669719
1872 1 -10.0394 16.3015 16.2165
855 1 3.95736 4.46771 15.3245
295 1 -6.71843 17.8617 0.76532
326 1 -18.9162 5.19136 3.15353
1221 1 22.1829 2.41666 14.326
1649 1 22.3174 17.4241 30.5727
235 1 -5.48495 18.5213 -11.5398
741 1 10.6078 17.5877 15.3662
25 1 -5.60383 -10.2135 -12.4003
430 1 -4.64138 17.9117 29.2648
1126 1 -2.87398 17.2753 18.2874
708 1 -15.7709 3.67088 15.7268
447 1 25.846 -9.02409 1.50084
1703 1 -14.3372 4.78332 2.90268
1147 1 -13.8745 -8.41463 18.2021
769 1 0.105727 -22.3098 1.94293
443 1 0.697596 33.576 -11.3963
413 1 28.2062 5.93667 1.07446
1002 1 30.2511 19.8925 15.5377
1720 1 16.3826 18.6826 2.14417
448 1 15.2494 -6.84407 3.02632
1794 1 17.3502 -6.41729 15.9674
1037 1 -9.11029 -22.9791 3.14519
582 1 -21.9644 4.97755 -12.7651
2041 1 18.9028 5.76565 15.4764
539 1 6.74704 21.3201 -10.7342
1632 1 35.8517 -21.3037 1.24206
1458 1 6.62655 18.8057 14.4679
1431 1 7.26962 17.7279 15.4549
1352 1 -7.60247 18.1749 1.59217
341 1 -6.90953 6.52294 -11.4349
1550 1 35.2512 5.07208 0.898061
912 1 -5.02142 20.9978 -26.0305
60 1 23.3748 5.73923 16.6127
37 1 -4.70156 19.2365 -11.4355
1803 1 10.5173 -7.1682 16.5705
9 1 23.0316 18.3206 2.84597
1071 1 37.094 -8.46909 17.5454
1989 1 -30.497 -10.1521 2.61312
71 1 -3.57709 18.5292 1.63242
564 1 -14.9894 6.12574 1.93633
381 1 12.0014 5.28012 2.44184
1013 1 26.9418 34.3174 1.16412
318 1 11.9946 -7.01079 -10.5675
981 1 26.5862 19.5643 -10.8284
1189 1 -14.1283 -6.56103 16.6377
1230 1 1.13417 7.09237 15.674
1888 1 4.93315 7.61425 17.1028
1820 1 1.52102 -5.91543 17.3148
1403 1 3.83115 7.7958 3.15454
936 1 5.70508 21.1834 2.62729
512 1 19.3119 18.6708 2.73597
212 1 5.79888 -7.43766 -11.0028
656 1 19.8684 19.1935 29.3061
1433 1 21.7296 7.52546 16.9773
1792 1 -5.33981 33.9387 16.7031
1448 1 6.04534 -19.1324 3.53404
1583 1 -5.92591 34.5439 29.5067
1503 1 25.1799 20.5816 15.7461
1942 1 10.5073 22.8466 1.7474
978 1 9.95168 20.9599 2.05546
1650 1 9.57642 8.06213 14.0102
1712 1 -3.01711 -7.0303 1.51912
1841 1 25.3407 -5.78153 -11.652
12 1 -2.84838 19.3973 2.15065
652 1 -0.161033 8.15708 -11.2931
366 1 -0.286587 6.66643 2.13392
1099 1 13.7519 -17.5365 3.36226
203 1 -26.9071 21.4049 17.1271
698 1 41.8799 23.9751 4.74083
144 1 -24.9396 7.88515 2.96917
749 1 1.68195 -5.0717 18.0101
1932 1 16.3515 -18.9677 17.7706
1312 1 1.53954 9.77387 15.6673
1648 1 2.26893 10.0576 3.07584
19 1 5.10803 8.05226 1.85383
551 1 -8.03281 -5.12956 2.48912
645 1 18.4562 -4.75997 -12.031
1214 1 32.0158 37.3726 -9.58955
1802 1 8.52629 8.62028 15.5899
973 1 7.96615 -4.75531 14.7511
253 1 -5.47962 8.58984 3.04514
476 1 -5.89735 8.92795 -9.44629
1481 1 -3.69787 22.5772 0.886388
666 1 -4.91626 21.2631 16.1796
1747 1 -4.20007 22.0134 2.7893
373 1 8.51098 9.79579 1.45676
1291 1 -16.8934 -4.85979 3.07543
992 1 12.5899 8.53675 16.0509
1208 1 24.6928 9.76917 16.1245
274 1 -16.6639 8.12363 -25.3285
350 1 39.4691 -4.3908 -10.3655
272 1 -14.0563 -4.72733 3.38056
672 1 13.3137 22.9393 29.7372
875 1 12.9246 -3.91006 17.9179
1061 1 1.63724 -4.65204 3.28864
1762 1 2.93674 10.1245 -11.848
691 1 3.47996 9.82681 4.33786
1385 1 2.6788 9.21797 -10.0505
155 1 17.7047 9.85085 -11.7542
1469 1 4.91176 10.8759 1.83045
124 1 6.89672 9.83098 -12.4148
635 1 32.1171 10.4598 2.78689
1417 1 20.5934 -16.9324 17.1952
605 1 8.09879 23.3224 15.9871
1054 1 20.581 -3.68509 2.41052
907 1 19.5097 -3.14946 2.75591
953 1 8.69012 -3.85889 4.68796
2011 1 8.08209 24.2581 14.5507
1686 1 21.1894 -4.2588 3.19241
659 1 -2.48171 23.5444 0.15132
1939 1 8.4549 -4.16097 17.308
774 1 23.5804 -3.90739 2.76388
303 1 -4.22865 10.0562 -12.8991
1228 1 9.34434 9.29574 1.74202
1393 1 -15.7957 9.87147 14.8611
816 1 13.3415 21.3768 4.16849
1289 1 0.578175 -4.12849 16.0918
1300 1 0.782901 -1.97014 16.8024
1046 1 2.89988 -3.08706 3.76282
1599 1 42.8468 10.7202 28.8155
870 1 -12.0179 -16.5679 2.69926
283 1 32.8287 11.6027 2.5344
748 1 -10.4004 11.7742 3.63285
1285 1 18.3646 12.2627 2.14239
856 1 6.2229 -2.37163 3.32345
964 1 5.79177 12.5673 2.22469
344 1 32.474 -2.1109 1.14717
1103 1 19.8307 -2.195 0.588444
58 1 21.5676 -2.87099 2.70495
859 1 21.142 -15.4766 15.2935
1785 1 -4.75608 10.1627 16.4345
1770 1 7.01053 -2.44579 2.18449
601 1 8.87453 10.8864 1.45038
1248 1 8.31067 25.1542 15.818
502 1 10.8611 10.6065 1.74034
703 1 9.37532 -1.95998 2.02478
883 1 12.5551 -3.37509 15.3283
696 1 -1.80808 -2.81079 1.33001
989 1 -0.797258 39.688 1.66629
987 1 15.7938 11.6228 -10.4407
1608 1 -13.0655 -15.0376 15.9532
1468 1 15.9924 11.8322 14.8031
800 1 1.1328 -0.789413 -10.7941
638 1 30.0405 -1.11794 -10.6167
1172 1 16.9137 11.895 -11.2934
1668 1 -9.94357 26.8332 15.9684
1799 1 4.68053 -13.7649 2.83643
1589 1 6.22678 11.7514 -11.9658
1611 1 4.58374 0.451415 14.6964
59 1 5.78956 14.6435 -10.351
1477 1 19.5321 13.6481 17.1203
516 1 20.3934 -1.08694 -11.959
561 1 6.80452 13.177 2.56308
195 1 -6.30682 0.220489 15.7655
1683 1 -4.88976 12.5978 16.6381
1732 1 -4.87346 40.8113 3.80915
1667 1 -2.62458 26.4646 16.03
322 1 -3.60614 -13.6885 2.00535
98 1 -5.05992 -1.087 1.0424
629 1 -2.75178 0.339633 2.28971
966 1 10.6781 13.6123 -10.4707
898 1 10.2635 12.4116 15.1738
1522 1 13.0765 40.9554 1.67496
814 1 -1.19288 -13.3246 -26.45
1915 1 28.2615 1.43309 2.59152
1056 1 1.51439 1.89584 16.9414
1459 1 2.35821 -0.257911 31.1281
1736 1 0.593837 29.3655 17.5547
391 1 16.081 -12.6554 2.74602
853 1 2.97361 -13.2181 4.15473
1710 1 16.8252 0.581911 2.30058
797 1 1.96342 0.779382 -23.3459
1152 1 17.4732 14.9084 16.4538
1817 1 16.3329 2.97244 16.7993
2017 1 -7.94518 14.0875 18.0555
262 1 3.04873 1.38116 -10.0723
968 1 6.89151 1.35056 -10.1247
404 1 5.54474 2.32854 17.3313
1767 1 7.54479 14.5746 32.7475
789 1 7.51482 -26.0528 4.41612
44 1 -6.42287 -0.12108 6.07276
1548 1 -19.6801 -27.7871 -10.6118
1179 1 9.71409 -0.183508 -9.3541
2008 1 10.798 0.627954 4.9036
1567 1 23.2204 -0.115945 -10.6495
1542 1 -2.42672 0.660908 3.99497
804 1 -3.72087 0.653367 17.5989
937 1 13.8854 14.5875 3.20709
542 1 -13.4736 2.78518 4.62914
681 1 12.5806 -13.1463 3.88681
342 1 12.9274 -10.312 18.4419
1797 1 15.1897 -9.41733 3.29426
95 1 0.811954 15.7829 5.12973
1301 1 1.53358 1.77191 4.47912
1408 1 16.2373 3.09214 18.1626
1111 1 30.5952 -24.9951 4.38614
1663 1 16.013 2.17486 -9.71466
1294 1 -9.12697 3.25296 -10.1369
65 1 4.62368 15.6831 16.7665
138 1 5.43828 2.25368 -12.2375
1885 1 6.2012 2.52321 2.36685
840 1 7.9958 14.0933 3.73852
1889 1 20.1217 17.177 16.0844
570 1 33.8383 15.8325 3.20935
922 1 9.01483 -10.5833 2.55473
927 1 -5.64767 1.24279 15.5028
242 1 9.62519 1.75418 -10.4188
374 1 10.7494 2.42118 4.005
1444 1 -4.01414 16.9556 18.4054
1524 1 10.4717 16.2068 -8.58418
1534 1 -2.96491 15.1953 3.46716
649 1 11.514 15.7737 32.1363
380 1 12.1347 -25.9621 5.50777
1731 1 -12.7423 30.8038 17.5684
872 1 0.350263 -7.27445 3.14272
742 1 0.20465 17.9806 -9.05315
1065 1 -1.12509 18.8537 3.6492
1122 1 2.48087 5.02053 17.0202
1947 1 14.5084 -22.4704 2.86019
334 1 3.47057 3.63166 3.42518
382 1 18.1091 3.3447 16.1919
1508 1 -8.85591 17.318 1.43804
126 1 19.863 3.44693 17.195
947 1 7.4029 3.12764 15.8295
21 1 -8.37095 -10.8465 -11.0623
571 1 7.47593 3.85933 2.92078
49 1 8.6806 3.24832 4.42392
897 1 -3.6897 16.3989 3.2623
348 1 -3.88356 17.4133 3.2913
1664 1 25.7928 17.7966 3.57255
1950 1 39.4171 -10.8709 33.9208
825 1 -2.11279 5.01086 4.11255
309 1 -16.33 -9.10116 16.1499
1778 1 13.7689 31.4517 2.55648
1561 1 -0.497229 17.349 17.397
1884 1 12.1845 4.70952 19.3124
107 1 25.385 3.06789 4.28524
946 1 -13.5806 18.5549 3.61415
1552 1 -12.4144 -6.77126 4.22227
1835 1 -11.3716 6.06666 2.6638
340 1 0.717231 5.0208 5.15215
467 1 4.72927 6.59845 -10.7133
565 1 3.51415 18.3193 2.68182
763 1 18.4744 5.58693 3.29657
182 1 18.9918 -23.5215 -24.774
39 1 18.6144 4.82231 -11.78
1629 1 20.3035 5.72169 16.7964
1098 1 18.397 6.11571 4.28198
538 1 6.68254 31.8836 2.8193
1390 1 34.2955 20.32 5.06118
1538 1 -7.31135 18.3758 31.0893
1811 1 21.258 -8.00535 2.65422
1482 1 8.1524 5.46705 4.23069
1657 1 21.0086 4.97055 30.9706
1450 1 8.97941 5.85019 3.7592
1752 1 23.0399 6.67858 2.72455
290 1 -4.73531 4.5862 3.82244
1006 1 -30.3647 32.0151 31.8021
1628 1 -2.78835 4.34275 3.52598
1894 1 -15.359 5.81302 18.4723
505 1 26.638 -8.07307 32.6883
1331 1 -12.3783 -7.18234 5.22733
1475 1 -12.8305 5.86047 4.16396
1491 1 15.0313 5.7831 30.6181
858 1 -10.8969 20.259 4.73985
486 1 14.1746 8.17821 4.54492
975 1 1.91328 5.95519 31.9065
1362 1 16.8707 7.47449 3.92952
1547 1 16.5035 -21.5001 17.6211
452 1 19.224 6.85557 3.84539
1296 1 3.84045 6.31909 17.3171
2029 1 -8.63526 22.4724 5.26815
584 1 7.23021 8.40196 -10.1305
1492 1 33.8049 -20.0664 17.6099
694 1 -6.52213 6.6934 3.34016
758 1 6.07018 -5.48798 4.54995
784 1 5.72005 7.18992 -22.5311
1375 1 7.31349 -19.7187 -9.42916
894 1 8.68021 6.83442 4.00848
1660 1 -3.96426 20.2842 -9.9776
519 1 10.1087 -6.04059 16.7945
3 1 -2.7736 -7.86866 4.10888
1953 1 -2.58932 7.79408 2.90294
1616 1 -3.01235 5.26728 3.19305
1572 1 -14.7973 7.3942 2.26238
453 1 -15.8635 20.3559 -9.37758
145 1 -0.5904 33.6086 17.6717
1624 1 -1.39688 -6.32753 17.5959
675 1 12.8268 21.1078 -21.2813
184 1 0.694493 22.9417 3.99615
1144 1 2.52347 -5.47482 5.35514
278 1 2.04061 -33.6254 4.67417
796 1 -9.54691 -18.2569 4.61815
1097 1 1.50889 23.2382 18.9357
880 1 2.61739 9.52755 -6.57706
321 1 17.1856 -5.43452 -8.90098
275 1 18.8171 9.5123 -11.2792
1204 1 18.527 -3.66758 18.9287
1562 1 18.8629 -18.6503 30.7827
1842 1 5.94033 10.3255 17.6263
1451 1 5.94473 -4.15949 3.20693
1641 1 6.57535 9.24 17.6685
722 1 20.091 9.72843 18.5162
414 1 7.96796 21.1718 -8.36686
1584 1 22.1113 8.76346 5.1412
1089 1 9.18205 7.6972 31.0173
1192 1 23.5164 7.41771 18.1502
1808 1 11.3056 -19.6225 17.6845
400 1 -3.19093 9.57367 17.4935
2040 1 10.8032 -6.32888 4.88723
1489 1 25.8271 -5.70543 3.03708
1881 1 14.4 24.9383 17.6622
1805 1 26.8751 10.1952 5.15611
489 1 -1.43344 10.9423 3.55044
151 1 14.7231 10.227 -23.9815
1893 1 3.37795 9.86483 16.8604
1775 1 16.5914 24.7369 30.1446
2020 1 3.5879 11.2179 18.0726
511 1 4.45943 -2.75917 -8.91742
1689 1 32.4881 -2.52837 17.3803
419 1 5.52145 11.2964 5.37188
715 1 5.31072 9.33495 4.30806
1875 1 20.7669 -16.4985 4.51194
87 1 -7.34734 11.7354 17.9526
1716 1 22.4611 -17.3657 5.78022
1108 1 21.9661 -19.3374 4.41202
1656 1 9.59496 -3.6235 3.73962
2001 1 9.46786 -18.5419 3.72263
1626 1 9.37395 -16.7498 18.6626
1839 1 11.2781 -18.6018 17.4461
1751 1 11.6017 10.7517 2.61514
362 1 11.3652 -3.65472 3.48885
868 1 -0.712982 10.1535 30.3525
1858 1 12.6998 7.90342 4.98481
222 1 0.0924044 10.7186 2.91574
1924 1 1.12157 12.247 4.35584
1333 1 12.7828 -1.95669 17.6081
397 1 3.95358 10.7619 17.2124
1428 1 16.9917 12.8566 4.00646
1743 1 14.767 11.5107 5.45603
1571 1 3.39121 -2.62089 19.3409
588 1 -8.71719 12.6172 3.66256
1971 1 -6.43475 12.5462 -10.0942
177 1 -4.95241 10.8064 4.19152
895 1 34.653 -2.24963 -10.3784
181 1 8.10288 25.7739 -10.1339
1093 1 7.68911 -3.67632 17.9665
1388 1 -18.2331 -1.43417 17.5646
1527 1 -5.51832 10.712 5.1538
1409 1 -17.6058 -2.93894 29.6414
747 1 -3.72113 12.7333 2.466
746 1 -32.3336 -2.36087 3.24176
1203 1 10.676 -2.17349 2.22444
1379 1 13.1248 12.5511 2.85716
2009 1 -16.4798 11.7741 16.9011
1647 1 14.856 -0.424742 17.7027
546 1 0.208918 -1.24614 17.3114
1181 1 13.8664 -1.93019 18.3868
1058 1 -11.861 11.0593 17.7841
1376 1 2.88497 -0.587142 19.0009
1847 1 17.7758 12.5345 16.7407
244 1 -24.0981 13.49 3.18573
578 1 3.73656 13.7309 4.7209
1016 1 19.1751 15.5018 16.3101
514 1 4.78169 0.92692 -10.8147
1923 1 -8.10432 14.0736 2.40468
1970 1 -37.1431 0.703975 30.9668
1878 1 20.1133 -0.500384 31.813
2045 1 18.9265 13.1262 -8.73349
55 1 20.8944 12.1298 -11.1389
392 1 6.82064 13.7957 3.71391
363 1 9.16535 13.2512 1.88042
1929 1 -2.35271 26.4017 17.1141
1026 1 -15.4308 0.750387 2.23779
560 1 10.0062 26.4166 17.143
806 1 -1.91977 13.7505 -10.4658
323 1 -1.64852 12.101 16.8019
785 1 25.536 -15.4904 2.13182
673 1 12.9527 14.3473 2.63686
1800 1 12.3367 -14.2636 3.82654
1814 1 0.501012 14.9085 19.3785
646 1 0.825093 14.2225 17.5001
1998 1 12.4945 2.44699 18.4205
833 1 -0.172433 -11.1458 -8.11662
1744 1 -13.0022 13.3975 18.5103
1112 1 1.61971 1.46571 -8.05004
1138 1 15.5879 -0.329711 -8.88356
1787 1 3.05675 14.5401 -6.56414
169 1 2.31711 0.266758 -8.17269
1155 1 4.12634 15.7436 -8.52265
406 1 19.3381 1.34702 -8.56376
967 1 20.5864 13.5239 -6.45769
979 1 19.9279 -0.620358 6.56463
1677 1 -4.96491 14.8834 2.90233
1833 1 9.26931 13.6331 20.5791
204 1 -5.38861 13.6717 -8.02936
1507 1 8.89827 14.1734 18.4292
1457 1 10.3976 27.5729 20.6543
347 1 23.5459 14.5378 5.02992
477 1 24.1307 28.9794 19.427
1253 1 26.0259 15.0691 4.26606
628 1 11.7643 0.31556 4.92702
1607 1 14.0603 1.17297 31.9657
1516 1 13.335 28.9176 3.92887
1474 1 15.2157 30.2121 4.45642
852 1 -26.8152 3.3897 5.4311
1661 1 2.18526 15.8441 18.7775
359 1 16.1965 1.15256 -8.8278
1170 1 14.653 4.8737 4.19788
2028 1 1.58699 16.6357 19.4747
1425 1 4.09675 16.6041 4.39524
1886 1 16.8642 29.2193 19.2452
1364 1 3.49571 1.11423 -8.94863
221 1 18.5727 15.7565 6.05787
367 1 19.3592 16.1439 5.39282
737 1 -8.65691 15.5574 31.9323
1334 1 6.33544 3.09689 18.4883
153 1 6.71685 15.524 -8.40987
1467 1 32.5784 3.18848 18.0162
923 1 -9.67239 15.4367 31.1963
2035 1 -7.56131 1.54082 4.17825
932 1 -5.94899 3.03496 3.76686
750 1 8.11853 15.9924 4.50735
1909 1 6.93431 -11.195 4.22012
308 1 8.54114 2.66948 5.46831
1391 1 8.65471 2.21655 -10.2188
1326 1 -17.6911 16.0791 17.8076
844 1 9.53782 2.21598 5.59175
355 1 -4.99576 -11.395 6.53205
329 1 -3.33844 16.351 6.18989
1680 1 -14.0568 15.2613 5.00407
1014 1 -3.03566 2.96601 -6.67075
1644 1 10.2989 1.57494 4.35446
1659 1 11.5734 3.49015 7.26981
591 1 12.8858 -10.3061 6.85809
20 1 -0.233271 4.6905 19.334
192 1 16.2652 18.0195 5.22051
1614 1 14.813 4.517 34.3112
951 1 -11.4047 4.58582 20.6377
1957 1 4.15219 4.09553 3.95526
648 1 18.2307 -10.7215 5.40123
1654 1 3.82973 2.45913 6.28422
706 1 4.75562 18.6399 -9.55014
1456 1 6.61517 17.7687 18.9804
428 1 6.09507 32.6542 18.6096
1405 1 19.1813 31.4905 -9.50085
1638 1 20.5362 31.253 31.5682
910 1 22.4153 17.9329 -8.93628
1194 1 6.63811 32.3076 19.4907
473 1 8.0885 2.95755 -24.545
1519 1 21.7613 3.26741 33.6516
4 1 -19.3975 17.8088 -9.71829
1776 1 22.7304 17.3319 32.8214
1176 1 23.602 -9.05228 5.62486
481 1 -4.67836 4.57423 -6.87466
952 1 23.0416 3.57581 6.37961
573 1 24.2722 -9.84807 6.48635
291 1 -17.125 4.85505 6.66778
468 1 -2.61734 18.7243 -21.2692
1854 1 24.8614 -23.0846 -8.29393
1174 1 11.8019 3.13951 19.008
171 1 -2.07091 17.5843 19.887
827 1 -0.850174 4.40888 18.0994
1369 1 1.28434 5.58019 5.97907
545 1 -12.3538 19.2136 -6.65485
1783 1 17.6473 -8.89896 32.2526
456 1 2.05366 -8.80145 4.33839
129 1 29.6947 6.17554 6.15722
1206 1 3.52881 3.75981 32.413
1202 1 17.4258 5.21585 17.3851
255 1 19.4069 5.59278 3.94316
1063 1 19.1118 3.54037 -8.1259
386 1 -8.85623 -8.44582 18.9812
504 1 47.6242 19.7642 4.1506
867 1 7.33763 4.65286 18.4628
1377 1 -6.07272 -9.71417 5.48199
583 1 -3.97242 4.34068 4.56602
1698 1 -3.47688 17.328 5.49426
1739 1 22.783 -8.4724 4.80175
762 1 12.6673 34.0745 -8.79131
205 1 -15.7393 5.67628 3.31719
1860 1 11.8236 17.7661 18.2608
720 1 -3.55228 5.46387 18.4862
1139 1 0.14157 5.51655 7.53374
1793 1 -2.60836 5.70488 18.8296
1345 1 2.01196 -6.62934 19.3985
2038 1 -11.6255 5.27745 32.7924
69 1 3.19939 -9.29273 -9.5298
411 1 14.5719 -4.63516 -7.56598
1669 1 -10.613 7.52536 5.99209
848 1 -9.04631 -9.74112 32.3315
1718 1 16.5277 -8.26479 18.6117
1401 1 17.4052 -7.75055 18.3632
267 1 -8.71984 -5.46715 4.45405
943 1 -7.99851 -7.4438 -8.69423
861 1 4.85191 5.61735 -21.1373
1590 1 4.60178 -6.47973 4.40226
1982 1 19.3645 5.14459 6.55928
1869 1 6.21187 19.649 19.4719
1052 1 21.0522 7.72171 -7.38992
1146 1 -8.05937 6.20342 20.4947
232 1 7.70472 19.4463 -7.10471
1150 1 7.8965 20.0989 -9.02236
1320 1 -3.66139 6.28403 5.9574
1079 1 9.23094 -21.1319 -8.90192
2007 1 -3.86069 20.1813 20.6733
1738 1 -1.6766 -7.25515 19.3397
1396 1 24.9167 8.43333 18.8871
101 1 0.27363 6.89022 -9.4973
496 1 13.9543 6.17852 5.07181
702 1 27.6529 18.7725 -7.28252
313 1 27.6368 20.9489 -7.26045
1556 1 14.6157 7.49828 18.9693
312 1 0.851632 -3.52637 19.5004
1618 1 0.142564 8.42647 32.8899
2013 1 13.6024 20.9746 -8.51042
1259 1 1.81342 10.4743 20.8482
1514 1 16.3077 6.81982 20.6284
1156 1 -10.1091 36.0931 -9.87664
1852 1 2.44729 9.30036 18.3526
461 1 -10.306 22.3731 19.4138
1476 1 3.69069 7.19607 5.01129
1831 1 29.4559 -5.19193 21.6868
409 1 45.6211 -4.56869 -7.56131
1600 1 18.5731 -6.33822 5.40787
1962 1 6.61421 7.83259 5.26871
643 1 -7.92138 -5.68564 5.8414
1316 1 -7.31945 -4.9803 5.53328
1436 1 20.0398 8.5066 33.9137
901 1 6.66782 23.2966 6.35758
425 1 7.37281 8.53508 -8.55291
1813 1 -4.4893 -5.69656 5.63967
1821 1 -5.73418 -5.45497 34.4902
75 1 -4.73494 7.28058 -8.73445
1581 1 -3.33054 6.43791 4.72978
1493 1 23.6413 8.18402 6.34871
1308 1 -4.23537 8.92793 -8.24268
1961 1 10.1592 -5.47186 18.845
11 1 -3.40489 -5.44295 3.9751
1357 1 -4.37964 8.29686 4.56013
2042 1 12.0416 21.9641 19.7051
701 1 13.4822 -5.88969 7.231
1993 1 -13.769 23.0904 6.08721
1349 1 -13.1966 23.0239 18.8143
248 1 11.7813 21.1842 5.23682
72 1 12.3991 -5.17378 -23.518
143 1 1.26549 -18.6542 -6.67651
1788 1 13.3655 24.3068 3.94696
1445 1 -11.9228 24.5183 18.8842
665 1 26.5916 11.182 18.5404
2047 1 16.2233 23.0041 33.1492
1341 1 16.2915 10.2605 5.10596
1398 1 15.5249 -3.66617 4.09771
1876 1 17.1186 23.3724 5.35263
1997 1 -8.07375 9.2505 19.7394
130 1 6.69024 11.4082 -8.25514
299 1 4.17245 -2.70484 -20.4879
1184 1 20.7087 -3.24979 -8.12249
285 1 21.4468 -17.8192 5.21348
379 1 -7.38631 10.9085 7.30587
1555 1 7.77735 -1.86411 4.59858
1670 1 -4.7221 11.072 19.8295
260 1 -3.93101 -4.02937 4.72406
1504 1 23.7546 -2.34197 19.2528
642 1 24.4023 -4.74177 -7.69626
572 1 -15.5403 9.41435 4.40928
1934 1 -3.38593 -3.36393 -8.23343
1252 1 11.5159 10.5473 5.18992
865 1 -0.314124 8.94366 18.3995
1790 1 12.8705 -2.53227 1.99204
693 1 0.7604 -3.5792 -6.8493
305 1 28.2823 -1.01332 -8.04769
755 1 3.42436 -1.59557 5.07195
214 1 15.1247 -2.79199 -7.52475
1499 1 17.9329 -1.06908 4.55964
1652 1 -9.36259 11.4177 2.85261
1394 1 4.48548 -15.2286 32.8798
230 1 16.2126 11.4986 18.4704
1498 1 5.12721 11.9351 4.52765
1351 1 -21.5096 12.2699 16.9656
941 1 5.51369 -1.06199 19.5667
1363 1 -21.4333 -1.32378 5.07202
889 1 -7.44608 11.9864 20.9865
141 1 7.33394 12.7495 4.67048
30 1 9.59086 -15.5663 -22.7573
2021 1 -3.78712 11.4648 17.3518
1754 1 24.09 24.2279 18.0422
982 1 10.5605 10.5669 3.16352
888 1 38.9614 -15.3843 5.5039
1591 1 11.9359 -2.23455 18.2906
335 1 12.9419 -2.23241 2.9206
996 1 -2.86787 22.9579 4.70289
1729 1 -0.26635 12.9767 32.8854
1651 1 15.4755 -0.58335 33.1218
1912 1 14.0705 -0.141956 6.19538
168 1 15.958 -1.34295 4.04277
233 1 13.7601 11.8832 -7.87091
336 1 15.8678 25.9624 19.0579
1952 1 17.2747 -0.849306 34.3871
1662 1 3.5895 14.5811 5.72461
106 1 17.9749 -1.97742 17.54
1182 1 32.2308 14.7296 4.06239
111 1 5.58095 14.0942 -8.25104
1582 1 6.32271 -0.340455 5.47578
1972 1 31.7738 -0.941696 20.0114
1416 1 7.87946 -13.5713 -8.9954
1768 1 -6.4148 -1.51188 6.57532
1560 1 -9.00199 -0.0229339 4.08732
273 1 20.657 12.339 5.52304
841 1 -32.4463 -0.786013 -8.71322
726 1 7.89743 26.3703 -7.86252
1981 1 8.24665 13.2149 20.3122
1201 1 19.7335 11.8197 -7.33945
1124 1 -3.02372 12.2455 31.6587
207 1 8.73043 -1.8192 19.1918
1840 1 -1.854 -1.26101 -9.09357
1755 1 -2.47075 38.4487 3.95876
449 1 -2.77991 11.3379 4.85656
918 1 -1.58402 13.2416 -11.2445
352 1 27.1372 13.9962 -9.38392
771 1 13.3006 -14.397 18.1006
903 1 -2.77872 13.4295 4.23133
772 1 0.909963 3.56254 21.2108
492 1 12.9358 55.479 7.27572
920 1 0.0665664 13.2361 8.18351
1988 1 14.9431 0.403424 19.5808
117 1 1.27812 1.41692 -34.2402
218 1 14.9451 14.3681 4.76177
944 1 2.66052 14.7648 6.0523
276 1 3.75487 -13.4086 -6.08013
623 1 32.0888 -12.5038 5.56721
1779 1 -7.17502 41.5776 6.33736
1887 1 17.5213 0.069851 6.35394
631 1 6.17359 14.9316 -6.62266
81 1 20.4051 0.58584 4.79561
1328 1 6.06946 15.4717 6.08651
959 1 7.46791 27.9894 6.82434
900 1 -6.58105 -14.7005 7.74411
317 1 8.19239 -14.3234 7.59416
1745 1 -4.02994 28.7728 20.3413
1095 1 11.8633 1.09459 6.76036
437 1 9.05843 14.727 -8.04332
166 1 -4.50526 -0.307477 21.7291
752 1 0.0136039 0.31816 -8.41904
1077 1 13.856 -12.8592 6.69877
1053 1 26.6361 -12.6515 6.21385
634 1 13.4815 2.07662 6.85515
426 1 1.37507 44.5269 6.60167
919 1 0.68106 -11.3707 6.20284
995 1 -24.8957 2.2378 19.8025
934 1 3.14919 1.86028 7.21504
1287 1 3.79587 2.48298 7.98888
1859 1 2.27208 17.3517 21.0859
73 1 17.5621 31.2488 -7.29631
728 1 5.38917 28.2845 6.3595
1781 1 5.75476 16.5092 -6.87857
1240 1 6.78836 -11.0802 7.05832
398 1 -6.83258 14.4203 -5.75507
1242 1 22.3714 1.50298 22.0975
523 1 21.2121 16.6852 32.4059
280 1 8.04401 15.028 7.4786
1255 1 -18.8933 1.35387 18.4651
1241 1 21.5024 1.95929 19.2573
158 1 -4.07659 2.68513 6.89877
768 1 -2.32465 14.4065 5.86135