ITEM: TIMESTEP
225000
ITEM: NUMBER OF ATOMS
2048
ITEM: BOX BOUNDS pp pp pp
0.0000000000000000e+00 1.3679807573413575e+01
0.0000000000000000e+00 1.3679807573413575e+01
0.0000000000000000e+00 1.3679807573413575e+01
ITEM: ATOMS id type xu yu zu
1281 1 -13.3414 -13.3948 0.691121
300 1 -11.2967 14.7216 -11.4771
1478 1 14.9517 14.7595 27.8337
1824 1 30.9415 1.00036 14.7087
1197 1 3.3004 29.0155 2.023
1726 1 -8.71426 42.1505 28.5214
1164 1 17.8899 14.4831 15.5618
41 1 5.76632 -12.2829 -13.4519
935 1 8.13021 -0.365492 1.3038
1103 1 23.3469 1.71008 1.5375
949 1 -5.90642 0.887658 1.21827
482 1 -5.61615 15.1478 2.13016
1604 1 7.97896 25.8834 14.551
553 1 10.011 -15.0059 1.29223
527 1 24.6671 -12.0865 14.9253
703 1 11.9848 0.257184 0.68594
26 1 12.2339 1.61103 -11.8457
989 1 0.434741 42.484 1.00581
306 1 13.3072 -12.307 13.7947
363 1 12.0156 14.1733 1.69407
1938 1 -0.738464 14.8158 16.4997
1026 1 -12.3244 0.135242 1.17786
906 1 0.613997 30.02 14.3049
1715 1 1.22929 -10.3504 1.72415
1890 1 0.84741 -11.471 1.7956
1045 1 16.0084 15.6503 1.50504
1515 1 15.7861 16.8014 2.11614
186 1 29.8455 -12.7289 0.940888
1226 1 31.3702 17.6764 14.1535
206 1 4.49045 16.4837 14.0726
1643 1 3.29446 -11.0574 14.848
1305 1 -8.7189 1.96862 0.115159
21 1 -7.49287 -11.6853 -12.1347
794 1 6.32525 2.16398 26.9157
1306 1 -8.29894 28.6975 29.5949
1387 1 -7.92233 2.44028 16.1008
338 1 7.3197 15.6958 15.2515
1235 1 8.46546 1.69153 1.02735
348 1 -4.43373 15.8558 0.285914
57 1 -6.87968 0.957444 0.755218
374 1 8.70388 3.29767 1.30806
544 1 24.1033 -13.0434 13.9595
1758 1 12.9116 29.4058 -0.514112
1522 1 11.1635 43.3894 -0.114231
629 1 -0.513389 1.84874 0.975953
876 1 12.2204 44.7949 -0.43548
132 1 13.9542 1.36899 12.7319
201 1 14.3663 5.40176 1.75585
1508 1 -12.2543 15.7451 0.84755
1690 1 2.86341 5.2759 1.00082
1332 1 14.8797 3.60598 14.1921
679 1 1.99112 16.5966 -12.6072
269 1 2.94639 3.48414 -12.1435
139 1 4.23277 17.1938 -12.2098
1786 1 18.7451 18.2833 13.7201
1100 1 5.82781 3.57209 13.5692
493 1 8.13709 30.1179 0.394387
913 1 5.68301 -11.0049 14.0862
356 1 20.8469 17.9442 13.9622
1535 1 20.4343 2.18861 27.8926
393 1 9.76245 4.45421 0.0623894
552 1 -4.4125 3.30561 0.173132
430 1 -4.07739 19.6047 28.4338
1727 1 12.0481 4.46401 15.0912
410 1 -2.25622 18.3282 13.8504
1576 1 -2.40253 5.38268 14.6648
799 1 -3.38678 4.99682 0.725279
716 1 -0.834361 17.5239 -1.25114
1554 1 14.4882 -22.1204 -0.309711
1572 1 -11.5018 7.09902 -0.377961
1531 1 -12.7974 5.13933 0.736519
127 1 14.1829 6.63667 15.8657
1901 1 3.49103 5.49514 26.7553
1055 1 2.23464 4.87556 -13.4658
217 1 1.65551 19.4202 0.0140594
1480 1 -9.35757 31.0373 -0.518704
182 1 17.2473 -22.9 -25.8775
93 1 4.92967 19.2399 -13.0995
538 1 4.19939 32.8281 2.12207
1076 1 -10.0224 4.56798 -0.342617
656 1 17.5615 18.754 27.8825
2034 1 5.90136 32.3808 0.700702
1700 1 7.603 -21.3677 28.1188
894 1 4.59429 4.70912 1.21911
228 1 -5.45952 17.5366 0.295284
1723 1 8.9038 19.5379 16.6879
838 1 -6.79514 -8.64185 -12.7361
1925 1 22.1245 33.4929 0.0887933
863 1 9.67262 19.8278 13.5786
845 1 -4.58637 3.95633 -11.5948
584 1 8.8695 5.37248 -12.0478
1412 1 11.3364 19.0886 26.6557
460 1 12.3259 -8.53623 25.8311
1953 1 -1.53653 4.5566 2.35504
1420 1 25.5879 -21.6757 13.7423
53 1 27.1078 5.07526 14.9215
694 1 -0.769197 5.49762 -0.188755
829 1 28.7603 35.066 13.6091
850 1 2.09886 6.93832 28.0881
970 1 16.0698 7.92496 0.233004
420 1 2.7731 20.0152 -13.5731
1120 1 16.9969 7.18872 14.1873
212 1 2.61981 -6.10684 -12.3629
1129 1 17.1646 -6.92961 -14.3289
1525 1 17.8237 5.8392 14.8683
1550 1 32.1777 6.55166 -0.500795
1497 1 17.6026 6.36203 0.284275
1721 1 19.5039 6.84899 13.7805
37 1 -4.58736 20.7994 -13.7587
783 1 -5.53791 -20.389 -14.0396
1632 1 36.4826 -18.7585 0.570798
3 1 -5.04115 -7.26755 1.07731
2023 1 -3.79831 7.05619 -12.7049
537 1 10.4596 5.29404 -0.264649
60 1 24.9498 7.35972 14.2611
205 1 -15.0877 7.08297 1.64445
1404 1 -0.160258 -20.6741 13.5559
381 1 11.9543 7.93692 1.17779
704 1 13.6946 7.79489 -0.183852
1368 1 29.4923 -4.93418 28.0957
1960 1 1.02232 21.6172 14.5467
594 1 1.35799 -6.53633 29.0113
1274 1 4.13547 21.7372 0.943556
1374 1 -25.3564 -3.86766 14.2216
539 1 2.91778 22.1559 -11.4959
1059 1 4.29386 7.37831 13.6871
1883 1 6.12064 7.78306 15.231
1932 1 17.3145 -18.1595 15.3365
714 1 -9.63323 7.86568 12.6863
1244 1 8.38855 21.9043 1.97249
401 1 19.5277 21.5999 0.452875
1939 1 6.77915 -6.60711 14.1864
1823 1 8.2223 35.4124 0.211855
615 1 10.1229 -4.43075 14.1225
1747 1 -4.89359 21.1625 0.872772
274 1 -16.9914 8.3146 -27.9498
1089 1 11.3543 7.54282 26.53
248 1 10.3829 21.6941 0.481515
1841 1 25.7376 -5.37012 -14.6942
1066 1 25.5168 -18.6904 3.10185
1160 1 -2.2721 -4.36803 15.2464
2033 1 13.694 22.3798 0.824949
1298 1 -1.43561 -18.4631 14.7617
1487 1 -0.736552 9.3454 14.1794
1588 1 1.04925 -16.5117 0.998047
1940 1 15.4735 9.9259 13.255
151 1 14.6667 8.99951 -25.925
929 1 -10.5323 9.81901 0.888601
353 1 2.23991 11.0128 -0.699917
155 1 17.0697 11.4045 -13.8813
705 1 3.81461 9.18075 13.9238
275 1 17.4802 9.90508 -14.2247
1759 1 18.3446 23.432 -13.4344
1216 1 5.57644 -4.19954 1.20641
19 1 6.27215 10.0143 2.57255
1784 1 7.85934 22.443 16.4012
1875 1 18.5161 -19.8117 1.95388
252 1 5.48733 9.43777 -0.083862
124 1 9.3581 8.09211 -12.0093
1641 1 7.68118 10.8151 16.0713
655 1 10.9415 12.1007 -13.5015
259 1 -4.71761 37.0934 -13.1667
1225 1 24.3903 8.73277 2.56306
1656 1 8.19783 -3.59672 1.91983
1594 1 11.1834 -2.37667 2.15995
1481 1 -2.12884 23.6772 2.35684
1169 1 27.1334 -2.96293 1.40745
1489 1 25.521 -5.21509 2.08959
1766 1 13.7302 10.6176 14.1513
672 1 14.6639 25.4096 27.7376
759 1 1.59831 12.9149 15.2773
1681 1 -24.4731 10.5951 13.87
1473 1 30.0778 25.298 14.8028
1459 1 4.39635 -2.28742 27.5611
244 1 -23.2541 10.0804 1.29711
1546 1 3.66362 -1.71695 28.8356
1041 1 -10.3947 -42.3774 -1.39554
344 1 33.7607 -3.3375 1.3603
1372 1 -8.70092 10.6678 28.3602
907 1 21.0792 -5.59718 1.56355
2027 1 6.93449 -2.19895 -12.8086
973 1 7.23701 -4.31509 14.9607
547 1 -6.17014 -2.95815 1.26423
1936 1 -5.57891 8.82584 28.4812
859 1 20.8242 -17.5807 15.9106
349 1 22.0786 9.98124 26.907
1796 1 -17.6446 10.0994 -0.156628
271 1 23.5522 -1.43839 -13.5227
1248 1 10.7622 25.0237 14.741
316 1 10.1346 -0.268542 -27.3986
663 1 10.6463 0.381315 15.0364
1755 1 -2.18905 39.6548 1.00266
1043 1 -1.28927 -2.41923 14.9246
1208 1 27.1889 12.5545 13.9555
377 1 40.4297 11.4112 2.05288
390 1 -0.790734 -1.48526 1.46329
998 1 -13.8305 11.6751 0.86771
335 1 16.1674 -0.214539 2.37156
331 1 14.1972 13.6409 -11.8434
884 1 16.1715 0.128804 1.48578
1463 1 15.6256 26.3542 14.2495
438 1 29.7855 12.4112 -0.545405
792 1 30.361 -14.5003 14.2275
36 1 3.84128 0.0368332 14.9659
1172 1 18.1063 12.7644 -12.7958
1032 1 -8.23656 0.28314 14.3132
1668 1 -8.84451 25.5339 15.2096
454 1 -9.40216 28.3782 -0.362782
408 1 19.0268 -1.81782 -13.0462
887 1 20.2784 -0.10476 -12.7489
1324 1 -7.96385 26.5289 1.06262
55 1 21.5683 11.781 -11.9678
1785 1 -4.31049 14.0218 13.505
1081 1 22.7221 26.3684 -11.9833
1929 1 -3.9488 24.9293 14.6961
1910 1 38.4277 1.12278 15.8184
502 1 11.2708 14.8874 0.401912
432 1 25.8404 13.1147 1.39486
903 1 -2.44446 13.1775 1.72294
387 1 -0.624059 0.55434 14.6249
607 1 27.5458 15.3472 3.11943
1710 1 13.684 1.12937 1.85904
1915 1 27.5195 0.00133916 4.04485
1269 1 3.07077 14.7701 16.7318
78 1 3.04122 -11.0965 -11.401
29 1 29.1151 0.913932 16.6761
301 1 15.5959 1.96352 16.2117
404 1 4.37776 1.77612 15.9446
761 1 18.5811 0.0602578 1.64356
1871 1 3.25188 0.44734 15.8807
596 1 -7.60301 13.5042 1.78469
1382 1 5.08358 2.82876 -12.0754
787 1 4.20004 -14.5914 1.87495
810 1 -7.73983 -12.7266 15.0638
1611 1 6.27645 1.65828 16.5728
1221 1 20.6368 1.21007 15.6717
1361 1 9.62561 -13.2163 1.57016
840 1 10.3547 15.3554 0.293415
927 1 -5.74517 0.411295 15.8345
42 1 -18.4974 0.341322 0.851211
811 1 23.131 -25.5292 2.7427
854 1 -2.01226 -11.3569 0.98432
1102 1 12.2518 14.9737 14.5556
1283 1 23.7237 0.968996 15.9326
1022 1 26.5483 -10.7359 0.132823
110 1 25.719 2.85989 2.25866
1608 1 -15.0742 -12.0233 17.4776
322 1 -1.38482 -13.181 3.93437
606 1 28.9654 17.1872 3.30136
342 1 13.7822 -10.1482 16.0128
1797 1 15.2989 -12.5049 1.48197
487 1 -11.0818 4.73153 -11.7635
1941 1 4.26927 17.0606 2.67841
1777 1 17.6988 30.0498 15.5776
923 1 -8.82913 16.2419 29.9641
570 1 31.0559 15.7648 3.30287
138 1 6.8968 3.10744 -11.9433
33 1 -8.20319 3.84997 -12.7864
1920 1 32.686 30.4286 30.6852
1512 1 5.21946 1.766 3.25457
1687 1 -7.13565 2.82017 44.4339
25 1 -6.41784 -11.677 -10.2632
741 1 7.85767 16.5386 15.5671
1764 1 -4.69691 16.0664 -25.5792
708 1 -17.6099 2.73232 14.8762
1391 1 10.4341 1.96291 -11.1767
1616 1 -2.93271 2.68716 0.906974
122 1 11.3907 17.3546 -13.198
112 1 -2.35491 17.0676 15.2054
1892 1 11.1981 3.83901 16.245
113 1 10.7284 17.9508 1.32298
125 1 -0.47498 4.00578 -12.7707
673 1 11.1491 16.085 2.02035
1082 1 1.14787 -9.40542 16.0809
1947 1 13.646 -24.4249 1.43445
405 1 2.31901 17.6377 -10.9202
582 1 -25.4538 3.72887 -9.36313
8 1 -11.8382 5.36239 15.7852
1733 1 3.44088 34.2177 3.67103
1209 1 3.33701 3.97354 2.49415
1872 1 -10.4704 18.7763 16.3282
65 1 4.86762 17.788 17.1964
743 1 -20.7007 33.3005 3.48245
378 1 4.42785 -9.3489 2.23884
237 1 -7.37292 -10.0542 -10.9993
1402 1 20.2984 -10.275 14.2728
947 1 6.87062 2.42458 16.0893
1450 1 7.19904 3.84908 2.27753
878 1 22.0571 16.0713 16.4788
75 1 -6.1498 3.12263 -10.5891
1657 1 21.6679 4.11975 28.9855
9 1 24.0607 16.7367 1.85483
4 1 -18.9366 17.4603 -10.5796
709 1 -4.59912 3.05121 -10.9316
1628 1 -3.04063 5.2792 4.12164
1803 1 10.5736 -10.7974 16.692
1543 1 -14.4702 -9.02461 3.1712
1350 1 -14.9804 17.3056 16.5243
1620 1 -0.893538 3.79733 1.86272
1862 1 15.9898 32.4231 16.7397
5 1 1.19972 6.50201 -10.5544
1810 1 0.0917039 6.75054 16.8085
1501 1 14.6745 19.923 14.8277
330 1 16.8169 -7.85611 1.9496
470 1 2.03873 -7.84055 14.7909
1122 1 2.53031 6.07663 16.49
1583 1 -10.0223 33.5742 30.1429
255 1 19.0317 4.89832 1.89189
467 1 6.19052 4.87426 -11.2146
1433 1 20.099 5.49211 15.335
1885 1 6.61599 4.73142 3.87403
463 1 6.98173 6.40723 1.55909
666 1 -7.29723 17.7999 15.3606
1627 1 -8.33637 -9.937 2.04427
1527 1 -6.13022 5.48931 1.7471
1036 1 -4.61559 18.2267 0.904845
1375 1 8.06148 -22.4545 -12.7597
315 1 23.3076 6.56803 2.02167
326 1 -17.5741 4.84768 1.79893
1006 1 -31.8938 32.2871 30.1083
1419 1 25.9709 19.2972 14.8424
1664 1 23.7064 17.6401 2.54294
1757 1 1.3659 4.4175 -10.1936
249 1 -0.0874082 18.4252 16.0976
1989 1 -28.2423 -7.39666 0.493181
1253 1 26.8519 20.8056 2.18579
1822 1 -14.0831 6.16262 15.1774
718 1 2.17549 20.3403 15.6116
1857 1 1.15937 -5.96321 16.1629
12 1 0.409616 21.3747 1.74343
1697 1 -10.6459 6.50164 1.24756
2041 1 15.921 7.01116 17.0015
525 1 4.6398 22.8134 2.99954
156 1 17.6256 20.6966 15.0538
1794 1 16.7624 -6.62042 16.106
534 1 -9.37278 -6.61981 -10.8507
1448 1 5.44061 -21.3345 1.51027
1016 1 18.6352 20.9406 14.6458
706 1 6.56538 20.7286 -10.4801
425 1 6.50991 6.01678 -13.1279
1150 1 5.73272 19.6744 -11.1795
1492 1 34.2126 -21.4075 16.1337
1584 1 22.1061 6.19338 2.09635
1370 1 -19.7287 6.16117 3.01712
767 1 10.547 5.63804 1.74402
1316 1 -3.5548 -6.25622 2.08385
1975 1 8.53818 5.29929 -8.98174
1311 1 10.6591 -21.2321 27.7794
1503 1 25.4205 20.1538 14.4853
400 1 -2.83549 6.55385 15.1689
996 1 -2.5667 18.5779 2.25841
1860 1 11.2557 20.8671 15.794
224 1 14.68 6.87242 14.0376
1151 1 26.3137 7.3144 3.80847
661 1 0.890103 24.1263 15.7562
1881 1 15.4447 22.2829 16.261
837 1 0.271665 -5.03049 2.15221
1750 1 43.3143 -4.3619 1.61728
435 1 1.80688 8.27075 1.66747
52 1 16.6354 7.9565 2.9892
1846 1 -8.39579 23.1371 15.951
936 1 5.23165 22.0086 1.20334
314 1 6.05423 6.75462 -26.1696
2029 1 -7.30025 23.8172 3.71769
758 1 5.14171 -7.19055 3.14893
341 1 -5.84799 7.08475 -12.4878
177 1 -6.22804 6.95831 2.32966
1390 1 35.9739 20.9278 1.87898
285 1 23.2633 -18.5809 2.52938
235 1 -3.07312 21.1882 -9.17532
992 1 10.7147 8.03991 15.1409
774 1 23.8026 -4.27783 1.5062
834 1 -1.2604 -6.09716 16.4414
868 1 -0.624037 8.06449 28.739
1099 1 12.4246 -18.0046 2.22175
1017 1 10.1136 35.3273 -10.6738
203 1 -27.5767 20.9632 14.5298
1393 1 -13.7365 9.42312 16.618
453 1 -13.5833 23.298 -8.43754
872 1 1.63979 -4.02569 3.09867
1599 1 42.4761 9.9202 28.7811
484 1 1.82201 -1.766 -12.1719
987 1 17.1195 10.2098 -11.5944
1468 1 17.2844 10.9134 14.9784
1381 1 -11.4057 -3.1302 2.65229
1109 1 32.8076 10.3667 1.80043
813 1 -10.9206 -4.16446 16.176
1590 1 4.4094 -3.76499 2.37719
1302 1 18.1069 10.3246 3.53743
1629 1 20.5304 8.95687 16.5341
1436 1 18.9465 10.4079 30.3235
1411 1 -5.25764 -4.13009 17.1592
1686 1 23.3168 -4.69955 4.17138
11 1 -4.51439 -3.46339 1.93266
605 1 8.95114 22.931 15.2048
2001 1 10.594 -17.072 1.91056
982 1 9.86543 10.2382 0.884624
572 1 -15.8691 8.4671 4.26177
1660 1 -3.17548 22.3669 -10.0727
883 1 10.5589 -3.97401 16.6631
1308 1 -2.33743 9.62067 -9.78659
350 1 41.4412 -3.33565 -10.5905
1228 1 13.6026 9.71746 1.67004
489 1 0.464481 11.5315 1.71281
747 1 0.499883 12.585 1.43751
696 1 -1.48921 -2.91237 2.52336
241 1 -11.6618 11.4408 13.8948
1993 1 -14.0241 26.7726 1.22338
1845 1 2.52986 10.4765 14.9553
1068 1 0.933478 -1.53728 16.0141
1301 1 2.14728 -1.3118 2.37688
1571 1 3.25327 -2.76022 16.9438
1289 1 5.30148 -2.24775 16.1279
800 1 2.8213 -2.46272 -11.5598
1842 1 5.75462 9.10851 16.7892
230 1 20.7879 11.5608 16.9053
856 1 6.29013 -1.51945 2.81587
1178 1 21.2052 10.1307 3.32837
1469 1 7.20771 12.2999 2.39274
1384 1 6.1593 -16.3236 44.2446
1054 1 23.5133 -2.60872 2.43952
1409 1 -16.4905 -1.41062 29.2788
1548 1 -17.6266 -28.9315 -11.3209
1388 1 -18.5419 -2.3957 15.7398
2009 1 -17.1773 11.0194 17.1095
922 1 12.0262 -15.5908 2.83399
937 1 12.6863 12.6168 2.75369
966 1 12.0265 12.2403 -11.7439
612 1 -13.2676 13.2233 2.90126
853 1 1.45264 -13.2611 2.17041
1844 1 16.5405 -14.5536 15.2955
1106 1 -12.4596 12.3546 3.35904
1312 1 3.89755 11.2814 15.9493
1717 1 3.61507 -0.654478 16.3348
638 1 31.8885 -1.3239 -10.4432
1047 1 32.7918 -0.893251 15.7251
1477 1 20.2502 12.1354 15.3461
1317 1 6.86519 11.2825 2.02304
964 1 6.56233 13.184 2.73067
1135 1 -6.57857 -0.341969 15.5671
1642 1 8.88494 12.3463 -10.9227
1083 1 21.6601 -0.719876 15.9096
561 1 8.81361 13.625 1.96322
1124 1 -4.80043 13.053 27.6473
1637 1 10.0169 -0.450484 15.6848
1088 1 -0.581284 27.3645 2.01914
560 1 9.81283 27.0494 14.6352
1488 1 -1.52779 -13.9847 -11.1732
965 1 -2.99082 0.164992 2.38559
391 1 13.8515 -13.0401 2.83569
1790 1 12.2215 -0.597876 3.61868
2015 1 27.2978 12.3146 15.9271
1430 1 26.9145 2.76493 -11.1898
477 1 26.5441 27.6014 18.4373
628 1 13.1355 1.07992 4.11315
262 1 1.80263 0.0124694 -9.3483
1437 1 15.4874 -12.6306 17.7047
320 1 0.914105 1.26549 2.3891
557 1 14.5764 0.396828 -10.1824
2043 1 19.2361 13.0346 16.7439
909 1 2.10458 15.2617 -7.94447
1923 1 -9.20713 13.5295 2.71079
82 1 6.16608 0.670817 2.57014
578 1 5.1454 12.8817 4.41648
1223 1 5.3862 0.218798 3.54515
595 1 33.965 13.6715 17.3763
1634 1 7.23669 14.2502 31.5813
1567 1 21.4255 0.0239421 -10.5262
292 1 -5.19142 14.1545 17.7715
1534 1 -4.63547 14.5858 2.40955
115 1 9.76266 13.8619 30.2287
897 1 -3.74568 14.0643 4.27358
1010 1 -16.903 -12.5772 3.2023
2048 1 11.3631 15.3697 16.9837
49 1 10.6517 0.0716494 3.47078
1337 1 11.1195 0.721008 5.36542
242 1 11.4927 0.672627 -10.5446
1840 1 -1.77558 -0.27429 -9.06453
1070 1 12.0516 -13.0207 18.7748
466 1 0.57747 16.9855 5.35252
1009 1 14.4604 16.9207 4.21019
496 1 16.1104 3.04515 3.25913
1663 1 15.3224 2.48356 -9.79389
1474 1 17.2814 30.7599 3.52353
1516 1 16.9498 28.8073 4.2562
1037 1 -10.0947 -27.24 3.26152
367 1 18.2502 14.51 3.01452
1458 1 4.48993 15.7424 17.6424
1649 1 19.9566 14.6883 31.1783
867 1 5.319 0.893299 17.9954
1577 1 -6.22683 1.03373 16.5647
473 1 8.44457 1.32078 -24.271
910 1 22.1805 16.7525 -9.76492
158 1 -5.00534 1.9257 3.98848
1326 1 -17.7593 16.1324 17.2589
1126 1 -1.26488 15.7526 16.4848
1095 1 12.5384 2.76587 3.7025
1597 1 11.9106 1.77808 4.89398
1778 1 14.1219 29.9597 2.97733
1703 1 -14.2888 2.03876 4.5563
1434 1 13.4809 3.48272 3.29389
1245 1 14.3115 4.25895 19.5669
505 1 27.5656 -9.19019 30.9352
827 1 1.13439 5.51037 17.3794
975 1 0.309994 4.32776 32.1308
1731 1 -10.9446 30.5733 18.1273
1921 1 -24.785 4.58079 18.7099
769 1 2.87452 -23.0097 3.77519
1431 1 3.81165 18.3479 17.1646
968 1 3.23287 5.63837 -10.155
886 1 3.77527 17.1976 -8.82364
1889 1 19.6368 17.8643 17.096
104 1 5.63024 5.03654 17.525
1294 1 -9.19498 3.10984 -9.65702
504 1 48.831 17.3331 4.20678
1482 1 6.29695 3.41224 4.25704
1646 1 7.69663 -11.2204 4.30962
1079 1 7.20125 -22.9426 -8.94679
720 1 -6.60297 3.8709 17.1766
506 1 8.21354 18.8826 -7.96266
413 1 22.7125 4.14209 4.20221
1071 1 36.9182 -10.555 18.0997
1792 1 -2.29037 30.8838 18.1686
1791 1 38.9939 30.4654 5.74352
318 1 10.9515 -9.37708 -10.0587
1479 1 -17.9824 32.2049 19.1095
825 1 -2.13805 3.1793 3.38236
1065 1 -1.2797 17.6879 4.09416
946 1 -15.1511 18.9783 3.89325
1352 1 -11.6701 19.7093 3.70175
39 1 15.4473 4.84636 -9.27793
855 1 2.51077 5.75049 18.2297
2038 1 -13.1254 6.24464 32.8646
1720 1 18.6944 18.6693 2.92213
1111 1 32.0988 -20.8984 2.01207
1957 1 5.5066 5.93319 3.93099
1405 1 21.594 31.952 -9.94857
1202 1 18.8081 5.77054 18.6586
512 1 19.0886 17.5458 4.362
1063 1 21.263 5.41002 -9.48753
643 1 -6.59996 -8.54425 3.00179
497 1 -5.5826 5.13001 -10.9535
1869 1 9.91924 19.5524 17.0601
1581 1 -3.13061 3.05747 4.19158
1192 1 23.6606 5.46471 16.1734
564 1 -17.6365 3.53689 3.46832
1884 1 12.4054 6.0554 18.3716
1014 1 -2.19135 6.01655 -9.42662
1894 1 -14.6637 6.15881 16.1017
1868 1 0.687436 6.45166 4.14801
1806 1 14.5501 -4.90591 16.7122
145 1 -0.106778 34.9531 17.7077
1475 1 -12.4009 9.73649 4.68692
1762 1 1.56619 7.03131 -9.58917
1211 1 30.0643 -6.596 31.6089
1835 1 -12.836 7.63868 3.56782
1189 1 -9.93054 -6.30434 18.2494
784 1 5.70943 7.68733 -23.4224
719 1 4.66322 7.30811 3.97304
722 1 21.6011 6.49968 17.6785
1811 1 21.9893 -7.14621 4.97263
1533 1 21.9623 21.0829 31.1419
1962 1 9.56032 4.98597 3.71439
1500 1 10.6952 -7.206 29.9503
1805 1 22.8166 7.58576 2.98894
56 1 -4.56623 20.425 -9.47446
167 1 -2.71546 5.75401 3.18691
1934 1 -2.08037 -7.6178 -11.7354
362 1 11.8294 -7.03709 2.86599
1688 1 12.8931 6.29171 17.1363
272 1 -13.9712 -7.0266 4.46695
1854 1 25.6404 -21.8256 -10.7832
309 1 -13.6437 -8.17704 16.847
443 1 -1.17328 34.4679 -8.90895
924 1 15.9027 -6.12951 16.0561
184 1 0.0740063 22.2684 3.57863
1354 1 14.2154 8.65708 18.3435
1586 1 -11.8144 9.9408 6.29781
1967 1 30.5683 8.64399 4.14271
749 1 2.25022 -5.73563 17.5449
1648 1 3.64824 8.99384 2.72614
1296 1 4.17462 8.05458 16.8775
727 1 3.84333 -5.87317 2.11358
1893 1 6.19915 6.8415 15.8368
511 1 6.25063 -4.79403 -11.715
1214 1 33.5523 35.5692 -10.4575
848 1 -5.24868 -6.85938 30.258
440 1 22.6587 -5.00406 3.40045
519 1 10.0399 -6.81852 16.9328
253 1 -5.38021 8.28052 4.27746
953 1 10.2226 -3.61778 4.1707
1716 1 24.2257 -20.9517 4.14365
1222 1 -1.1979 -5.27748 17.596
1788 1 11.6366 21.3388 5.06148
1396 1 24.8184 7.41916 16.8808
72 1 14.0333 -2.40705 -23.4289
869 1 -14.4527 -5.17739 16.4236
2040 1 13.7099 -5.89142 2.93414
1573 1 14.0777 -17.4454 -9.56946
1097 1 1.36299 24.4893 18.2056
1385 1 3.39638 10.5744 -9.46013
1494 1 15.6183 10.1316 17.6519
1749 1 16.1902 22.5476 -10.266
1061 1 3.92297 -4.36999 3.72548
1562 1 18.3808 -18.5384 33.0725
1341 1 18.6089 7.73026 4.80859
130 1 5.44831 9.76849 -9.79978
551 1 -5.66595 -5.87203 2.91315
1313 1 -6.14793 22.6075 -9.96751
755 1 6.84287 -4.03883 5.33965
476 1 -5.7464 9.49998 -8.6292
207 1 8.83152 -4.7234 18.4151
895 1 36.5568 -2.4417 -8.35562
1357 1 -4.22863 9.7932 3.48998
1754 1 23.3649 21.4889 17.6987
188 1 12.6027 23.2157 17.0316
38 1 -1.55823 10.4466 -10.1019
1466 1 -1.80661 -4.29031 18.4296
1714 1 26.7189 -2.44871 17.0584
448 1 13.0116 -3.43875 2.54449
1087 1 0.835754 9.49454 2.42821
870 1 -12.3034 -16.0957 2.14737
1560 1 -12.3774 -2.43686 3.36275
1445 1 -13.4029 24.9282 16.3264
1924 1 2.40504 11.53 4.08302
336 1 14.9123 25.4821 17.9659
1156 1 -10.13 39.3546 -10.1543
1888 1 4.43728 11.373 16.8414
715 1 3.69972 9.8181 5.59453
1167 1 -6.41886 9.76895 17.9384
283 1 32.1908 10.3777 4.59745
397 1 5.19326 10.9823 17.6118
1589 1 7.28265 10.6795 -8.08536
260 1 -7.42032 -2.12901 4.14717
1403 1 6.35137 8.95514 3.90193
165 1 -5.39328 11.3676 -7.47384
1451 1 8.21767 -2.08985 3.04269
1961 1 8.71593 -3.69678 18.1853
1093 1 9.92049 -1.96856 17.8465
2017 1 -4.94472 10.5712 16.7065
1767 1 8.98378 11.6738 31.2355
222 1 -2.75226 11.0204 4.29531
1591 1 11.1236 -3.00897 16.6651
429 1 26.8827 -3.3083 3.78907
1179 1 9.43987 -2.94625 -9.51704
546 1 0.190586 -1.51187 16.8559
1667 1 1.0236 26.8338 17.6154
1138 1 13.2321 -1.65935 -8.17529
1428 1 12.9759 13.6186 3.23707
218 1 15.6903 12.6099 4.16102
1736 1 2.57943 27.61 17.2338
1799 1 5.22159 -15.4547 4.48714
24 1 2.36613 -2.07991 3.10953
168 1 16.2108 -0.832477 3.2472
126 1 17.9825 -1.29246 17.8519
1351 1 -20.0817 11.873 17.9054
1415 1 7.49738 12.6363 3.27889
357 1 8.04075 -2.62053 4.10154
1914 1 6.31702 12.7001 3.80884
204 1 -6.66111 13.0311 -9.13568
516 1 22.4349 -0.0247949 -10.4663
933 1 8.10207 -2.5496 5.05118
746 1 -31.1122 -0.871884 4.59888
804 1 -2.92497 -1.79064 16.8795
1677 1 -3.93285 14.3433 5.51003
1812 1 11.7442 -15.6889 17.5592
10 1 11.4644 -1.02385 -10.772
1985 1 -16.1988 -0.969586 17.5365
646 1 -0.569664 12.9809 18.0537
1644 1 12.7868 -1.4749 3.68909
1735 1 -13.1033 2.23554 4.05098
352 1 27.9225 14.8228 -9.36753
1652 1 -12.4873 15.4566 3.26923
797 1 1.86078 0.630677 -21.2216
862 1 1.22671 1.64354 5.12169
1285 1 16.9607 13.0109 3.96737
1499 1 17.7732 0.503204 5.1074
623 1 29.8353 -13.0111 5.06657
1970 1 -36.7296 -0.305729 31.3235
111 1 6.15478 13.4799 -9.04886
304 1 -7.98091 14.1156 19.4226
1558 1 21.1806 -0.64128 20.6549
66 1 20.4624 -27.3338 5.40152
44 1 -5.73852 -0.513727 4.21466
427 1 -5.87174 -12.3002 17.7281
1377 1 -4.17024 -12.4727 3.57888
449 1 -4.84498 13.4569 4.71233
1732 1 -3.68228 42.1954 6.434
750 1 12.597 13.7468 5.81953
1995 1 -3.1151 28.8258 5.01399
1147 1 -13.3974 -13.5127 19.8856
28 1 12.0812 1.34083 5.89595
1661 1 0.167126 14.4568 18.9678
1738 1 0.496304 -11.3591 19.2315
129 1 27.1712 3.39318 4.54655
1152 1 15.2376 16.3541 18.5785
614 1 16.2109 1.83698 17.2841
1328 1 2.46889 16.198 5.59645
997 1 1.33178 44.6071 -7.5552
1909 1 2.49366 -11.6147 4.63054
406 1 17.1733 2.41689 -9.2501
334 1 3.37965 1.14273 5.36206
737 1 -8.66126 13.6791 32.3478
959 1 4.30308 28.1593 4.09714
153 1 4.74385 16.4461 -8.42865
81 1 21.1552 1.41816 4.97865
1182 1 32.7808 15.491 4.84274
1638 1 19.6458 29.7567 33.8954
932 1 -6.77449 2.72481 4.96014
290 1 -5.44589 3.09921 4.952
571 1 6.27422 2.03981 5.51361
308 1 8.39507 2.16655 6.11885
1241 1 23.3854 3.2269 20.1258
844 1 10.562 1.8558 3.9409
332 1 -17.5595 15.814 4.58484
1739 1 22.2616 -9.49215 5.20304
1255 1 -18.0832 2.68999 19.0204
415 1 36.7809 15.8764 6.45278
1035 1 11.0346 1.06008 4.15728
1813 1 -2.63488 -11.122 4.98465
1906 1 -1.7968 2.92928 -6.80628
355 1 -2.08362 -11.3055 4.11997
1519 1 24.59 1.88459 33.315
107 1 25.9544 2.81013 4.85438
95 1 0.542988 15.344 6.34025
1399 1 13.2355 15.3095 19.335
1446 1 -14.9181 -11.1554 6.07146
1886 1 13.2868 30.0406 19.0914
1817 1 16.0764 3.25025 20.1211
1950 1 40.5948 -8.18189 31.5918
1002 1 30.7105 18.7341 18.1896
1170 1 15.0032 4.0468 5.06155
648 1 15.9596 -10.1377 5.36706
1456 1 4.34081 19.0322 17.7926
1408 1 17.1812 2.34824 19.1211
1401 1 17.93 -9.31056 18.1704
1538 1 -8.04123 16.1934 31.4382
921 1 6.77346 1.89549 4.23566
1191 1 19.9509 4.03824 6.55166
1258 1 -19.8803 17.3465 5.30993
1320 1 -3.95943 3.5688 5.3277
1174 1 10.6977 3.45668 19.1518
833 1 -2.01858 -9.12021 -9.04544
1998 1 12.3196 3.75347 19.9357
101 1 -0.897135 4.82119 -8.77266
616 1 -0.422402 3.98574 -8.08886
456 1 0.848551 -8.31257 6.09507
762 1 14.0539 34.4542 -7.24173
1013 1 27.8522 34.95 4.90208
1793 1 0.0154319 6.87122 21.0681
286 1 13.3085 19.4095 -8.30365
382 1 14.59 5.41339 18.6983
452 1 15.4537 6.24709 5.66845
565 1 3.17147 19.182 5.47971
1207 1 2.89219 -9.30176 33.3012
796 1 -9.40221 -20.9824 3.8556
69 1 5.79693 -8.68241 -7.97687
858 1 -8.31333 18.4891 4.77635
1085 1 5.41987 -8.4076 20.3849
1319 1 6.30363 5.58612 4.81742
521 1 20.7224 5.51107 -8.11467
1982 1 21.3715 5.12954 6.65257
1134 1 20.6717 -22.7052 6.01696
414 1 8.66352 16.9839 -7.76998
291 1 -17.8608 5.81333 4.36244
76 1 10.3861 17.9627 6.13297
1839 1 11.705 -21.8025 18.9423
1561 1 -3.35051 17.6933 18.1913
189 1 25.2862 7.18933 -9.62108
916 1 -17.2676 20.0306 7.14119
591 1 12.306 -9.80066 5.17142
822 1 -13.9013 20.7822 5.51623
698 1 40.5066 21.6098 6.24707
1624 1 2.33399 -6.29383 19.0766
875 1 15.1228 -5.73519 18.3604
1954 1 16.4066 6.57245 5.95722
1194 1 4.64814 32.3256 19.5903
1529 1 -9.54466 5.75633 5.04729
1491 1 18.102 6.65914 32.3041
1669 1 -9.86772 7.75004 5.57031
180 1 4.22101 -18.9664 -9.13745
267 1 -8.11373 -6.31687 2.80598
371 1 -8.19182 6.85275 5.01149
943 1 -7.39311 -7.15328 -9.41256
428 1 8.34937 33.2385 20.1843
1575 1 -20.9046 -6.21358 4.85703
1257 1 21.1581 22.2911 4.78697
1600 1 22.6795 -7.46361 5.62961
805 1 -6.02565 21.5754 -8.18088
1052 1 22.618 7.54343 -8.78831
1808 1 10.0643 -21.6492 18.9232
1108 1 24.1763 -20.0091 7.3267
981 1 24.3544 20.8928 -8.13853
2042 1 11.5848 20.3519 18.8465
450 1 -15.289 7.16102 -7.61862
618 1 11.5763 5.91061 6.48654
1964 1 -0.633943 6.90826 20.2144
816 1 12.3626 24.0719 4.57465
312 1 -0.518899 -4.82781 19.1368
256 1 15.8547 22.3931 -9.00564
1852 1 2.87557 10.03 17.0328
389 1 15.1369 -4.93036 3.92445
175 1 2.92984 -4.3791 6.18393
411 1 16.1903 -5.34187 -7.91167
461 1 -10.2927 22.6413 18.8856
1898 1 3.72406 8.54359 -7.28513
1098 1 18.3485 7.2262 5.7351
2047 1 18.8445 22.2385 31.0803
321 1 19.0122 -5.27985 -11.2508
2005 1 5.66296 8.57027 -9.00632
106 1 20.5643 -5.91494 16.1434
198 1 -6.18537 20.9118 4.6411
1670 1 -4.07545 9.66374 18.6743
597 1 6.61803 8.66286 5.42108
1262 1 -4.89163 -5.3411 19.1244
1493 1 23.6839 6.57164 5.98762
1023 1 9.43403 5.53586 -7.44456
775 1 9.21098 7.4324 20.6667
171 1 -3.21716 22.0151 19.2706
1942 1 9.92001 20.423 4.88423
1230 1 -0.511938 7.89313 18.6564
2022 1 12.9115 23.0213 18.1172
675 1 12.515 23.4285 -21.6487
7 1 -1.41998 22.0919 5.88783
144 1 -26.3769 10.4661 5.57286
1820 1 0.424593 -2.23389 18.7149
1046 1 2.52021 -1.56697 5.23436
1292 1 15.8701 9.60042 32.613
299 1 4.51571 -4.49215 -20.6513
1232 1 15.916 24.3257 18.7236
622 1 5.37886 22.2041 6.4158
1242 1 19.2957 -4.4304 19.2415
2016 1 17.9674 10.8213 32.7059
841 1 -33.862 -4.03642 -7.30203
1184 1 21.6026 -4.78968 -7.6287
726 1 7.14034 21.5635 -9.73787
1314 1 -7.01058 8.71972 -6.76616
1363 1 -18.7569 -4.13929 6.44378
503 1 -4.58481 12.3387 -7.43281
729 1 23.2535 9.04852 5.98787
137 1 21.4407 -3.06861 6.7522
1432 1 9.62064 21.9855 -22.464
181 1 9.22403 23.994 -7.72864
771 1 11.6391 -18.1545 19.3535
1850 1 -4.28619 -19.8226 33.3629
1117 1 10.7077 9.2189 4.81106
1349 1 -13.9498 24.4461 18.6771
665 1 27.2677 10.1822 19.7989
1181 1 13.2677 -1.66398 20.2184
278 1 -0.354435 -27.9484 5.35738
2020 1 1.48592 11.4823 19.183
1300 1 -0.428354 -0.935627 20.9151
1398 1 16.9467 -2.61881 5.29614
1376 1 3.26878 -1.94147 19.8594
1689 1 31.3928 -2.23446 17.9833
1416 1 3.10757 -17.7472 -9.32959
59 1 6.2277 12.4238 -8.81618
1971 1 -8.78302 9.21738 -8.87514
1997 1 -8.30518 10.3812 19.2003
1185 1 -6.57691 -2.95979 -9.54076
1505 1 -6.27712 11.6479 -6.75137
1626 1 9.18249 -14.9503 18.8288
938 1 19.7062 9.75503 18.3116
87 1 -5.56773 12.4042 19.5287
640 1 23.473 -28.0724 5.82477
79 1 9.98392 -2.66927 5.98719
2021 1 -3.46395 11.8004 19.0546
243 1 10.0483 -1.68085 -20.7918
806 1 -2.72605 12.0647 -9.01383
1252 1 11.6406 10.2326 6.20916
1509 1 -1.43339 12.4488 -8.83887
1379 1 12.8494 11.3823 4.42077
1333 1 11.3632 -3.42544 18.7603
305 1 26.4803 -0.809024 -7.48807
877 1 15.3367 -1.04263 18.9767
1495 1 15.1087 13.2167 -10.8042
1607 1 14.8985 0.610616 32.5547
1800 1 15.0407 -15.3894 6.61188
748 1 -10.9576 13.1254 4.79652
1775 1 16.9913 27.673 31.6842
1847 1 16.8991 12.0537 18.2406
1674 1 -9.47794 -1.75887 18.985
117 1 1.96981 -0.167739 -35.5498
1555 1 5.87126 -0.633793 5.6896
1582 1 6.3766 -2.46901 5.14017
392 1 6.7752 12.3586 6.08417
1417 1 22.3119 -14.6049 17.427
58 1 21.1339 -1.95461 5.51972
1507 1 9.70498 13.1292 17.4286
789 1 7.80561 -27.6941 5.24086
540 1 8.0825 -1.38704 4.75052
1504 1 23.9664 -0.815781 16.6161
881 1 10.8838 -0.683988 -8.44867
1472 1 -2.77202 13.8066 18.053
900 1 -2.41989 -12.8735 6.46499
1369 1 0.537659 -0.217897 4.9388
1058 1 -13.4601 12.3589 18.0584
1751 1 11.4703 13.4108 5.95975
1056 1 1.27502 -0.0896353 20.0351
752 1 0.862633 1.7497 -6.28774
1021 1 28.5992 29.5973 -5.50388
199 1 -0.277887 -12.5324 -5.94007
944 1 0.688969 14.2833 7.08478
1110 1 29.7979 -1.21623 19.8052
1809 1 1.48846 -11.2046 6.04895
169 1 4.91105 0.594732 -7.0645
388 1 -10.5839 26.9671 5.83363
2035 1 -8.84823 1.00619 5.51684
1887 1 18.0206 -0.22052 5.88866
1364 1 6.24811 0.687389 -4.6044
73 1 20.1951 27.0116 -6.04647
1240 1 6.46762 -13.8743 6.32062
680 1 -5.24239 -12.5683 19.6616
728 1 8.18766 28.0149 5.04073
1734 1 8.39827 15.6511 5.03605
1702 1 -16.1453 -13.7802 34.6611
549 1 -18.2257 -12.5356 -8.98345
1685 1 8.33093 15.2653 -6.62589
1444 1 -1.54212 14.0521 20.473
768 1 -2.20511 14.8765 8.43349
403 1 -0.530396 13.8338 7.44683
1112 1 -0.236441 0.913962 -7.09953
310 1 -2.03097 28.6698 -6.3195
513 1 13.5851 -24.5523 6.42488
231 1 -0.208711 29.4688 20.9236
919 1 2.32993 -11.4945 6.6992
1990 1 15.4077 14.7237 7.12418
1819 1 16.8205 15.3232 19.9929
1155 1 1.42935 16.202 -6.52137
359 1 17.6987 0.713579 -7.54302
192 1 17.8543 15.4103 6.07108
1171 1 17.8899 2.27043 7.35149
221 1 18.6925 15.7164 6.72903
1724 1 20.1579 14.8356 5.03851
1146 1 -9.29788 1.77072 18.5879
523 1 18.8661 17.5175 36.159
1467 1 33.1224 1.39741 19.8617
1284 1 -6.88423 1.80602 6.55525
1334 1 5.96869 0.636414 20.5632
583 1 -4.39237 1.67437 5.49635
1994 1 -6.88806 14.4527 -7.49219
280 1 7.365 15.8121 5.73154
1148 1 -6.07181 16.0859 -6.78709
1176 1 22.8243 -10.2697 7.90993
700 1 10.1224 2.53114 5.73234
219 1 24.1437 16.5256 8.75591
1423 1 -14.8001 1.68617 6.75395
649 1 10.8843 16.709 33.7835
1457 1 12.1139 29.4479 21.362
842 1 11.7808 3.22394 -5.77964
1025 1 -0.646584 16.3936 8.06167
634 1 14.4894 3.58284 7.01914
1783 1 13.5873 -9.74045 33.8774
545 1 -13.598 17.5569 -5.9967