ITEM: TIMESTEP
230000
ITEM: NUMBER OF ATOMS
2048
ITEM: BOX BOUNDS pp pp pp
0.0000000000000000e+00 1.3679807573413575e+01
0.0000000000000000e+00 1.3679807573413575e+01
0.0000000000000000e+00 1.3679807573413575e+01
ITEM: ATOMS id type xu yu zu
1890 1 0.410061 -12.9798 0.0522376
377 1 42.1775 15.0867 0.461028
421 1 0.0594985 1.36683 0.684519
786 1 28.0159 -13.0275 14.9057
301 1 16.4172 1.04739 14.4142
853 1 1.82347 -13.0282 1.13535
587 1 1.66544 0.415569 13.683
186 1 31.0363 -12.9205 1.3614
1909 1 4.05567 -12.8094 0.368362
1269 1 5.10329 14.6495 14.5469
82 1 5.82632 1.19168 0.181453
870 1 -7.67062 -12.7304 1.31987
335 1 18.9327 0.0568784 1.03437
1689 1 33.5379 0.179499 14.1487
1306 1 -6.70595 28.2449 27.9454
1081 1 22.5433 27.7159 -13.6534
903 1 -4.80369 14.0589 1.33014
271 1 22.1891 1.10375 -13.047
892 1 7.86274 0.397075 13.868
764 1 -3.79779 27.8711 13.8371
195 1 -3.36788 1.32106 14.4516
1635 1 12.0019 0.629715 14.612
1069 1 10.88 0.315002 14.7226
2024 1 -2.16843 15.1277 14.0931
432 1 26.5749 13.7775 0.115942
249 1 -0.450662 14.1154 14.6332
1758 1 12.4634 28.6769 1.50053
1076 1 -12.1666 2.58427 0.83566
641 1 0.698056 1.95697 14.898
1551 1 0.539811 2.43109 0.0825514
840 1 14.1053 16.629 1.22581
679 1 1.71391 15.4148 -12.2079
1652 1 -11.1077 15.9492 0.751595
538 1 3.96685 29.4001 0.990059
161 1 -10.2048 16.4891 14.0709
236 1 4.36566 1.99131 0.0677459
454 1 -8.2745 29.4509 0.422394
1221 1 18.2535 2.94861 14.3412
1720 1 19.1409 15.8395 1.44502
485 1 5.80174 2.98958 14.3467
1824 1 33.9402 1.89557 14.342
1687 1 -6.70477 2.84186 41.7475
254 1 21.5209 29.1571 0.408884
1926 1 -4.93157 2.75692 28.3629
947 1 9.02128 1.82511 15.0205
493 1 9.44538 29.2522 0.298073
1103 1 23.9882 2.47837 0.940622
1159 1 -16.1593 -11.725 28.7129
906 1 -1.77897 30.0368 15.1721
502 1 11.7808 16.1054 0.43782
193 1 -14.9054 15.2123 0.348582
942 1 12.8904 -11.3223 1.19426
1273 1 -0.415391 -11.526 0.206579
825 1 1.40632 3.64305 0.809956
53 1 28.1472 4.47479 14.3213
845 1 0.0885035 3.68025 -13.051
201 1 15.1021 4.39802 1.43608
71 1 -11.0249 17.1497 0.123647
656 1 16.2154 17.9231 28.3085
78 1 4.04826 -9.82765 -12.2374
1233 1 31.1619 -9.79688 -13.3479
1405 1 18.5769 31.649 -12.5702
1497 1 18.4571 4.39189 0.00198702
1163 1 -7.52332 17.5708 1.01676
21 1 -6.22593 -9.86115 -12.6473
1707 1 8.77695 3.85009 0.802493
18 1 7.78364 16.7542 0.00226911
1842 1 8.16064 4.28623 13.7273
497 1 -4.04993 3.20962 -13.1849
854 1 -3.96036 -9.6119 1.14258
552 1 -3.63189 4.21618 0.102818
843 1 65.3247 3.47911 14.2962
356 1 25.4292 17.3378 13.778
26 1 10.6483 4.48972 -12.2386
1543 1 -16.0789 -9.13252 0.59336
1022 1 25.1779 -10.0409 1.25269
1267 1 12.818 17.6086 -13.5567
1620 1 -1.11291 3.30582 0.876091
1420 1 27.7814 -22.0662 14.9756
1149 1 1.39288 5.58517 0.804611
8 1 -12.0281 4.80392 13.8414
1332 1 16.0016 5.55211 13.9479
467 1 4.02311 4.85263 -12.4231
405 1 3.32011 18.8677 -13.0418
894 1 4.45373 5.37859 0.24534
1549 1 5.66547 -21.3909 27.4413
63 1 5.86606 -8.1954 15.1421
41 1 5.59605 -8.67323 -13.0241
1075 1 20.2805 5.75623 0.579175
295 1 -7.04812 18.4447 1.01958
1297 1 7.49093 19.1991 13.6987
1502 1 7.03472 18.2778 13.7886
1071 1 35.8488 -8.33272 13.8039
228 1 -5.82462 18.7998 0.903596
1561 1 -3.38733 18.8379 14.4222
4 1 -18.2349 18.695 -12.7334
985 1 24.996 -8.04186 13.9997
410 1 -0.149375 19.5277 14.2036
128 1 26.1947 5.8757 14.466
135 1 -15.0403 18.5114 27.8592
876 1 13.5146 45.7846 0.265169
12 1 0.869286 21.0523 0.58519
1419 1 28.1574 19.977 13.9102
1564 1 14.4965 6.28389 14.9047
1837 1 0.0997152 -6.50165 28.6119
594 1 1.70385 -6.75795 28.6233
487 1 -10.7233 6.86686 -13.5026
1501 1 15.5848 21.269 14.0782
796 1 -10.7944 -20.8103 1.15033
289 1 29.1613 -7.00502 -27.234
1336 1 -9.39134 7.26766 14.2116
534 1 -9.79971 -7.5564 -12.5855
936 1 3.28176 21.1384 0.941986
1885 1 4.93862 6.41233 0.773578
252 1 6.00777 6.64505 1.05826
1658 1 5.82704 -6.59001 13.8978
447 1 19.1029 -6.25083 1.44833
314 1 7.04446 7.25706 -26.6174
584 1 7.53764 6.34335 -12.7454
1348 1 8.20737 -7.31886 13.7856
2023 1 -4.78194 6.19097 -12.8787
430 1 -5.12328 20.9658 28.3052
1563 1 21.5166 -33.4792 0.250655
374 1 10.021 6.44408 0.885992
834 1 -2.3508 -7.54029 14.9706
1691 1 -1.57451 7.10775 0.828878
585 1 10.8754 7.10318 41.6805
1953 1 -0.418419 6.9187 0.380153
924 1 14.4974 -5.22028 14.837
1368 1 30.2584 -5.43185 27.646
1059 1 2.98997 8.64741 15.0773
489 1 2.22015 8.99327 0.691955
695 1 17.6735 22.0404 0.819047
1 1 18.7613 -19.3498 0.620586
1844 1 19.4255 -18.5146 14.5229
511 1 6.26318 -5.77134 -13.0284
130 1 6.82587 8.67026 -12.5059
520 1 -6.32656 -32.3801 0.250759
1838 1 8.54409 8.36288 0.153596
1410 1 7.97258 8.30681 1.07706
1584 1 23.0432 7.67596 0.116246
537 1 9.14595 8.15012 1.35408
1802 1 10.4034 8.85238 14.3744
1672 1 -3.77239 7.6407 14.6064
259 1 -1.90673 35.531 -12.9665
1500 1 11.4525 -4.56736 28.0811
1815 1 24.5207 -5.756 13.7407
350 1 40.7918 -5.51003 -12.3422
1679 1 12.4094 22.4889 28.5823
818 1 26.4548 -5.73558 0.415308
1291 1 -12.8976 -4.01728 0.000722294
740 1 1.01844 9.50251 14.6142
390 1 0.145617 -3.54299 1.01764
1503 1 29.0082 24.0275 14.8633
321 1 16.5686 -3.76998 -12.5947
1374 1 -25.5264 -3.74383 13.6926
1384 1 3.7845 -16.774 42.2623
1216 1 4.41501 -3.35936 0.375185
1087 1 3.80121 9.53135 0.665169
1836 1 16.7684 -3.63787 13.7565
1317 1 5.50375 9.79169 1.14545
727 1 4.74145 -4.54681 0.847318
1289 1 6.22818 -4.00718 13.9266
1641 1 6.13204 10.6307 14.38
1936 1 -6.19487 9.49981 28.1927
19 1 6.57332 9.80613 1.45114
1347 1 -18.5241 9.22781 14.7343
118 1 22.5603 -17.3084 27.5665
712 1 8.18243 -18.0666 13.7274
836 1 8.14598 10.2314 1.31198
1880 1 -3.84212 9.6498 0.745207
790 1 -2.99652 9.85169 0.108782
1298 1 -1.7148 -17.2992 14.2172
1711 1 24.5532 9.24621 15.1863
1487 1 -2.60224 10.1437 14.6692
1311 1 13.1017 -17.3856 27.4145
1208 1 27.0435 9.28368 14.4581
148 1 0.744231 24.7059 28.4512
661 1 1.10251 25.7497 14.6159
222 1 0.706555 10.992 0.0311003
275 1 15.7164 11.9194 -13.1313
1041 1 -12.0755 -43.7196 0.447708
1164 1 16.512 11.9394 14.9422
1668 1 -10.7969 24.6597 14.2035
1302 1 17.6147 11.6689 0.626884
787 1 4.91521 -15.9489 0.386759
1871 1 5.92906 -2.10476 13.8897
1494 1 19.1397 11.7423 15.1078
1571 1 5.06814 -2.97474 15.1436
383 1 7.19865 10.7169 0.905641
1888 1 6.60857 11.6773 14.6102
940 1 8.85309 -1.69163 28.6441
1823 1 8.26608 38.5488 1.49396
847 1 -19.4317 -2.38676 14.1157
1237 1 8.96018 24.5132 14.4607
644 1 -3.27391 11.0348 14.5013
1606 1 -3.74504 11.951 14.9537
1443 1 9.95975 25.6985 27.5789
674 1 11.676 24.8859 14.5496
1709 1 11.3077 -2.98123 -13.6603
747 1 -2.67282 11.8771 0.0531485
999 1 -15.1799 25.83 0.771167
937 1 13.3738 11.5995 0.129022
320 1 -0.776432 -2.94334 0.66697
391 1 13.6435 -15.2924 1.08727
333 1 13.8845 -0.542085 0.832892
1947 1 14.9576 -27.8819 0.447287
1915 1 29.5712 -0.620095 0.895932
607 1 30.3271 13.6382 0.46763
922 1 17.8844 -13.8694 0.484832
1495 1 18.0471 12.2748 -12.324
570 1 30.6505 12.6983 0.698095
1372 1 -7.63376 12.7438 28.3481
593 1 5.15559 -0.668938 0.287127
1047 1 34.4075 -0.0470456 14.629
1959 1 -6.57331 26.6782 0.1626
44 1 -4.58261 -0.659588 1.26291
187 1 7.80419 -1.24011 0.741205
379 1 -4.74473 12.2865 13.9809
682 1 -5.63817 -0.302705 1.15927
1118 1 10.0849 12.9588 1.46667
48 1 10.3901 13.1257 14.139
174 1 11.0217 26.287 14.7137
464 1 -2.09019 13.3736 14.1346
98 1 -2.01039 -0.284197 1.47388
1710 1 12.8214 -0.628906 1.28555
989 1 -0.616479 40.1128 0.141677
776 1 0.122104 13.6966 15.5208
1152 1 14.558 14.206 16.0401
557 1 15.5278 0.821732 -11.5468
769 1 3.15368 -26.7778 2.2454
1567 1 18.0233 0.624597 -11.3204
25 1 -9.00205 -12.2533 -11.9497
1646 1 5.6631 -12.3576 2.17717
1736 1 5.4931 27.6765 15.7512
1109 1 33.7068 14.2398 2.7119
158 1 -6.17705 0.414733 2.83686
1088 1 -6.6586 28.3064 2.02561
643 1 -5.50903 -12.9273 2.03873
1764 1 -4.99894 13.9779 -24.4164
544 1 23.5748 -13.1599 15.4548
798 1 9.13739 1.20697 -11.3421
1519 1 24.249 0.533581 30.215
1488 1 -2.35205 -12.6632 -11.6964
107 1 25.8204 1.0486 2.97239
1130 1 -0.927873 0.293277 1.79968
1508 1 -13.7425 14.7904 2.00501
110 1 28.338 1.54973 2.15643
1434 1 14.3704 2.16475 3.00975
1703 1 -12.6211 2.5842 2.08659
1738 1 0.0770478 -11.4316 15.6089
1045 1 16.6657 15.2518 1.60405
760 1 2.24061 2.8009 15.3465
182 1 15.6836 -25.4899 -24.7051
262 1 2.85389 2.30761 -11.336
367 1 17.5854 15.4369 2.48812
1431 1 4.43893 16.3956 15.425
1197 1 4.95079 28.9846 2.81019
378 1 5.45344 -10.936 2.44421
1361 1 7.55544 -11.9583 1.52237
927 1 -7.12928 1.88776 15.7358
69 1 6.24391 -10.7991 -12.0207
2048 1 7.5089 16.4771 15.5598
571 1 6.66266 2.80038 2.7641
811 1 21.3184 -25.6458 2.72451
1472 1 -5.14271 15.9449 15.9469
663 1 10.0718 1.86896 16.1703
1792 1 -4.20075 29.996 15.5205
1962 1 9.84615 2.86673 2.87006
1102 1 11.1961 15.2134 16.7066
673 1 10.9139 16.5432 2.0471
1616 1 -1.44668 2.13907 2.35325
1006 1 -27.9948 30.172 29.928
762 1 12.9644 29.2248 -10.7218
1531 1 -13.4183 3.24088 2.65489
1803 1 14.3102 -9.71866 15.4787
342 1 14.8707 -9.70968 16.5076
496 1 15.2977 3.59033 1.93986
1690 1 2.40734 3.16715 2.79713
536 1 2.72357 17.6722 15.7047
1643 1 3.29363 -10.6013 15.2693
269 1 3.44641 3.3178 -11.1493
425 1 3.18798 4.28943 -10.7802
404 1 4.50705 4.39299 16.1245
237 1 -8.21749 -10.0322 -11.9067
703 1 7.18896 3.77483 2.11941
1458 1 6.24714 17.3715 16.2671
1375 1 8.46932 -23.9077 -11.7222
90 1 8.48354 -9.25806 -12.0988
709 1 -5.7251 3.07202 -10.7814
129 1 22.6691 3.63574 2.87855
1326 1 -17.3537 17.5412 15.8215
1009 1 10.526 17.3248 2.99822
822 1 -16.1143 17.5798 2.25167
1299 1 -1.95466 4.45639 16.6371
732 1 12.2429 17.8296 15.3014
1350 1 -15.1145 17.0308 15.8829
946 1 -14.4324 17.7478 2.45412
5 1 -0.368846 3.51409 -11.9737
555 1 14.5247 5.347 15.9939
629 1 0.0267783 4.70556 2.12396
255 1 15.7198 4.68476 2.41793
1122 1 2.72577 5.39537 16.3099
156 1 15.8898 18.9672 15.2856
718 1 3.24573 19.6911 15.5884
452 1 16.8706 4.91179 1.79221
1114 1 -9.53811 -8.19241 2.44081
2034 1 4.85044 32.6788 1.59698
1883 1 5.63353 4.96767 16.0526
1527 1 -6.10296 5.60397 2.76186
508 1 6.90902 19.3493 15.3126
1450 1 7.54302 4.77402 1.75452
1740 1 6.55343 4.60305 15.8219
838 1 -7.13511 -7.87126 -10.9743
86 1 49.9239 -9.05956 16.1399
1402 1 21.6152 -8.98818 16.4856
1538 1 -5.39117 19.058 29.3827
1534 1 -3.56657 19.331 2.85816
564 1 -17.3999 4.89847 2.0677
827 1 -4.49248 5.86255 15.4629
1316 1 -3.1831 -7.95279 1.83891
1017 1 11.6526 32.4343 -11.849
1892 1 10.7366 4.71628 16.487
1750 1 38.9956 -7.70223 2.31347
1522 1 13.0681 46.4397 1.65703
1576 1 -1.19573 5.1575 16.2087
309 1 -12.6828 -7.11208 16.4721
2033 1 13.7615 19.8954 1.95835
829 1 28.2806 34.5171 15.4999
1989 1 -25.8096 -7.54442 1.99378
1254 1 2.73207 21.2486 15.653
1835 1 -11.7208 7.03863 2.21945
409 1 43.7342 -6.87605 -10.6995
1957 1 3.63359 6.85856 2.39569
1274 1 4.62881 19.9857 2.0924
1939 1 5.68135 -7.38643 15.6326
1784 1 5.35158 20.796 16.2595
1565 1 6.68327 6.90124 42.9203
1916 1 6.28937 6.83813 30.1884
1214 1 34.8603 34.8005 -11.9244
1370 1 -19.9348 6.65295 2.79316
1390 1 35.6163 20.3641 1.98543
977 1 22.4728 21.2608 15.8754
1192 1 22.768 6.30808 16.4683
978 1 10.5478 20.5593 1.68474
1403 1 9.51226 6.9641 1.77322
124 1 10.2123 7.51788 -10.9252
775 1 10.8549 6.60581 16.5149
35 1 11.621 -33.9526 1.91427
381 1 12.6049 7.29009 2.62262
1712 1 -0.947953 -7.17873 1.61899
1860 1 12.75 19.8867 16.3703
1747 1 -0.0160034 20.8439 2.29059
1841 1 27.9186 -5.41396 -11.5187
1806 1 14.9576 -6.01468 16.3692
429 1 28.0635 -4.62532 2.80887
929 1 -11.8227 8.01416 1.7663
1940 1 15.4012 8.74494 16.0787
525 1 2.26346 21.6533 2.93514
1967 1 30.5286 8.74968 2.44287
230 1 17.4885 7.79163 15.4617
244 1 -23.2143 8.91396 2.00227
1074 1 4.96807 8.38328 1.75235
1351 1 -21.4233 8.96891 15.538
1215 1 18.3743 7.82672 -10.9694
968 1 5.88344 7.85822 -10.7891
1971 1 -7.35627 7.90998 -11.8906
106 1 20.6832 -5.87884 16.4901
605 1 7.39971 22.093 15.78
1436 1 20.0845 8.79378 30.1171
373 1 8.51002 8.59765 1.94534
1448 1 9.36453 -18.9215 2.39959
615 1 10.1782 -5.5989 15.5313
1051 1 37.8328 8.51221 2.71398
1937 1 11.6337 22.2509 29.4136
1225 1 24.7907 7.87939 1.568
205 1 -16.0668 7.69168 2.86872
435 1 -1.1531 7.84304 1.71322
2040 1 13.2987 -4.9664 2.3713
1253 1 26.1851 21.8686 2.99903
387 1 0.044102 -3.59052 16.1728
1312 1 1.13295 9.99597 16.1574
248 1 14.1575 22.9664 1.82231
1296 1 2.55143 9.69569 16.2072
1588 1 3.67304 -17.5452 1.79446
180 1 3.63665 -17.798 -10.8431
755 1 5.09976 -4.36534 2.73205
1167 1 -8.05885 10.0841 15.8577
1491 1 18.3354 10.0361 29.5615
1632 1 34.7685 -18.1546 2.7912
349 1 21.0983 10.3879 29.4772
1054 1 20.1911 -3.98221 2.38674
1631 1 22.1458 9.55468 -11.1603
547 1 -5.96956 -4.24263 1.7438
376 1 23.5315 9.23171 29.0526
1066 1 24.2001 -17.0687 2.01353
2027 1 9.24446 -3.59407 -12.0478
871 1 -3.59765 9.55277 2.76269
1960 1 -1.80035 23.3349 15.3417
1489 1 24.797 -4.12049 2.46344
1766 1 12.9605 9.95055 15.4852
1881 1 12.1744 23.9355 16.3336
1160 1 -1.29335 -4.45438 16.1997
1946 1 28.8283 25.1375 -11.935
850 1 0.59203 10.8921 30.3471
1058 1 -13.2352 11.6191 15.7993
1599 1 43.6207 10.8159 28.9427
336 1 16.3391 25.419 15.9512
816 1 15.5762 24.4251 2.43657
344 1 31.065 -2.09913 1.80163
353 1 4.52075 10.9888 2.34711
1468 1 16.9572 10.8746 16.1174
789 1 3.75111 -29.3394 2.9434
1416 1 5.52418 -16.2299 -10.9143
204 1 -8.70414 11.9879 -11.254
595 1 33.973 10.8472 16.4665
1178 1 20.8442 11.8032 2.96607
283 1 34.4651 11.4033 2.00871
1512 1 6.18794 -2.84165 1.68953
1156 1 -7.45308 39.3166 -11.3566
1796 1 -18.8384 10.6683 2.28082
1083 1 22.3467 -1.89442 16.0098
292 1 -5.71076 11.2108 16.6841
988 1 -16.9277 -2.32655 2.08935
982 1 9.4307 11.126 1.89962
1642 1 10.2347 10.7166 -10.6935
774 1 24.5152 -2.00728 2.95772
1760 1 11.8197 -1.8394 15.6564
2001 1 11.4317 -16.6459 1.84553
655 1 12.0814 11.2532 -10.7897
322 1 -1.30444 -16.4151 1.52754
132 1 13.5368 -2.76247 15.477
1548 1 -14.3312 -30.2238 -10.7961
1755 1 -0.894461 39.0724 2.0667
1445 1 -12.4609 26.1406 15.6712
242 1 13.7042 -0.993167 -11.6984
748 1 -12.4939 13.4646 1.60858
1428 1 14.3217 12.9302 2.83807
505 1 28.9329 -13.9609 30.052
987 1 15.5701 12.2878 -10.8163
1663 1 16.109 -0.0371348 -11.9461
1735 1 -10.9927 -0.525561 2.84053
1852 1 2.28016 12.6944 15.6405
406 1 18.1422 -0.49293 -11.8316
1715 1 3.50082 -13.9674 1.5671
29 1 31.8024 -0.941689 16.5771
304 1 -10.0411 13.4187 16.5305
737 1 -10.0891 12.6147 29.6549
1417 1 19.3483 -14.4502 16.1588
1415 1 7.51229 13.4502 1.99069
638 1 33.7805 -0.2405 -11.7473
1717 1 7.01062 -1.18572 15.3924
1388 1 -20.4432 -0.824853 16.4941
1451 1 7.9636 -1.44169 1.77845
1343 1 7.94068 12.5232 2.7855
338 1 8.48672 13.2362 15.9273
1124 1 -4.28471 12.4807 29.4423
1637 1 10.2007 -0.971982 16.2507
316 1 9.65085 -0.160393 -24.638
1677 1 -2.90703 13.5932 2.03234
10 1 11.2841 -0.999865 -11.3439
42 1 -14.7859 -0.946006 2.24802
1597 1 13.3834 -1.42021 2.87866
1790 1 13.3712 -0.276774 2.73553
862 1 1.12021 0.133335 3.65658
340 1 0.932046 1.17417 4.40612
1661 1 0.324654 14.9186 17.3786
606 1 30.1641 13.9082 3.5592
909 1 1.55253 14.5962 -10.5027
1515 1 16.5556 14.8966 3.34982
2035 1 -11.6473 0.260703 4.17791
1146 1 -9.70429 0.664927 17.0828
867 1 3.69362 0.0426393 18.1954
1240 1 3.61785 -12.5841 4.48068
1914 1 5.29661 13.8874 3.1302
1387 1 -7.82666 0.947598 17.2924
1775 1 18.4283 28.0138 31.53
1649 1 20.6746 14.8064 30.8529
1499 1 20.8833 0.826145 4.54903
1611 1 8.08719 1.36284 17.5111
935 1 7.92017 0.0516775 3.70576
1283 1 23.0898 0.225194 17.398
878 1 22.8315 14.9306 17.8233
355 1 -3.27228 -13.1717 3.90461
549 1 -17.7107 -12.5616 -10.4847
1248 1 11.6249 27.6814 17.2139
1910 1 39.5073 1.05559 18.0888
1423 1 -16.2791 1.20774 3.95143
1906 1 -0.307996 0.538874 -10.309
1153 1 28.8151 -10.7512 -10.6091
1757 1 1.24293 2.28463 -9.67106
1609 1 2.08525 15.2731 3.92782
1777 1 16.1741 29.8985 17.3149
886 1 3.4392 16.2038 -10.4317
139 1 3.08404 15.7046 -9.25714
1474 1 17.8639 29.0216 3.9176
512 1 17.5858 16.2806 4.17551
75 1 -7.7221 2.04488 -10.5336
1239 1 31.979 2.5464 16.8472
923 1 -8.45541 15.3308 31.2048
1873 1 6.02163 2.54353 17.7906
1721 1 18.6943 2.79606 17.969
741 1 6.39063 15.2316 17.97
372 1 -6.54425 2.16621 -9.96511
1814 1 -4.93638 16.7155 17.3858
1664 1 22.7641 15.8477 3.14708
290 1 -5.60491 2.38944 4.18952
1065 1 -3.52183 15.4794 3.70771
49 1 11.4671 2.69301 3.04364
1255 1 -16.1242 2.29981 17.756
318 1 12.1675 -11.9296 -9.99622
445 1 -1.37146 2.81485 -9.43003
1809 1 -0.108775 -11.2009 3.54991
468 1 -0.715476 15.6579 -23.1902
1730 1 -12.8996 4.44486 3.8123
1810 1 0.474855 3.36896 17.4266
1886 1 13.7357 31.7621 16.7434
855 1 1.9724 3.68506 17.962
1111 1 29.5872 -23.3622 3.28305
720 1 -10.6842 3.25776 17.8382
1352 1 -10.9155 18.1127 4.10853
1627 1 -9.82614 -9.12891 4.36365
1085 1 3.84603 -10.0384 17.1849
140 1 19.0566 31.2428 -9.34818
1079 1 5.61343 -24.0999 -10.2849
783 1 -8.8218 -23.3574 -10.4057
1150 1 5.86593 18.1503 -10.3715
828 1 -6.44954 3.73993 3.1885
1533 1 20.8361 17.9719 31.8939
221 1 20.1437 17.3234 4.04258
708 1 -18.9927 4.02277 17.2915
932 1 -5.97908 3.40777 4.22254
1813 1 -4.51769 -9.56187 4.29068
1320 1 -3.20002 4.15552 4.55655
167 1 -3.882 3.274 3.84654
1095 1 11.9532 3.59628 3.6344
9 1 24.6765 17.0021 3.9942
1446 1 -14.2759 -10.1048 3.34566
744 1 -1.00883 3.85434 4.3456
1245 1 13.2803 3.16001 17.9955
1921 1 -27.0821 5.96429 17.0802
1794 1 14.6882 -8.35698 16.9836
101 1 0.228573 5.17959 -9.37656
1945 1 15.1622 4.82672 4.37397
1209 1 1.95382 4.88172 3.40669
1002 1 30.2429 19.2934 17.6854
267 1 -11.8531 -7.71077 3.17599
784 1 3.69477 6.05763 -24.0349
1476 1 3.98656 4.97881 3.36113
1529 1 -9.63727 5.48774 4.55538
1872 1 -8.66514 18.7835 16.7673
1583 1 -7.7834 33.0324 31.0345
428 1 4.95726 32.1627 17.786
722 1 18.6357 6.02088 17.8966
104 1 6.78114 5.01446 17.091
1479 1 -20.3734 33.2971 17.4314
1719 1 19.8383 4.66473 -9.3335
1889 1 21.4243 18.7419 17.4886
177 1 -5.41167 5.96557 3.49547
551 1 -5.80389 -7.60301 4.4783
506 1 8.7387 18.6241 -10.2735
1854 1 22.5267 -21.6201 -9.15254
1739 1 23.4491 -9.09757 3.3171
315 1 23.1866 5.14279 4.22816
1805 1 23.386 6.03796 3.77357
1460 1 10.5439 4.97766 3.79079
2041 1 11.5882 5.03517 17.7468
1716 1 24.8508 -21.6974 3.12453
896 1 10.6777 -7.6977 4.11047
1894 1 -15.1446 5.88108 17.4964
1211 1 26.4545 -8.9084 31.0816
1875 1 14.3936 -20.0915 3.50533
212 1 1.02867 -7.58065 -9.47853
1762 1 1.46652 7.01107 -9.23097
1718 1 15.9215 -7.25042 17.8438
1475 1 -11.9154 6.99133 3.43266
1562 1 17.0095 -20.6627 31.3984
1482 1 4.40752 6.86926 3.27288
1063 1 18.092 7.13489 -9.3255
1629 1 18.8477 6.09854 16.7654
706 1 5.31057 20.844 -9.90152
1121 1 7.30157 -6.59023 3.78096
1456 1 6.24985 20.3327 17.5204
3 1 -5.14517 -6.90096 4.08711
907 1 21.9621 -6.36597 3.08915
440 1 23.3026 -6.3311 3.92423
1934 1 -1.85526 -7.01859 -10.594
1788 1 10.9267 20.8795 3.88611
1670 1 -2.09225 6.33309 18.1398
1688 1 12.6423 6.85866 17.4204
1591 1 13.467 -6.73073 16.8798
256 1 13.4657 20.9412 -9.1442
698 1 42.2498 22.5926 4.39317
1846 1 -12.2669 21.7948 17.2738
1349 1 -13.4398 22.1407 17.8483
1932 1 16.3783 -19.717 17.8624
1970 1 -38.7657 -5.03388 31.4685
719 1 3.30873 7.6606 3.10551
137 1 17.9109 -4.95415 3.05062
1212 1 -9.52886 -19.4834 3.65573
1341 1 17.0995 8.50848 4.08241
299 1 4.55939 -5.04976 -23.0148
1799 1 5.06969 -19.0071 3.53888
1492 1 33.782 -19.6422 17.5339
973 1 7.40993 -5.54103 17.7139
1313 1 -7.3165 22.7695 -9.81485
413 1 21.7249 8.44161 3.1223
1767 1 8.6602 8.16557 31.3274
883 1 8.92811 -4.71674 16.8844
55 1 23.4273 8.44928 -10.1038
1752 1 25.5968 7.64409 3.71204
1099 1 11.6215 -18.5053 3.19229
1169 1 24.3363 -5.51478 3.7142
992 1 11.5864 8.75862 18.1305
389 1 13.6771 -5.64541 3.31524
749 1 -0.876148 -5.20166 17.5517
813 1 -13.1264 -3.82886 17.2046
1196 1 -10.8922 24.1224 -10.3492
539 1 1.63023 23.0539 -10.2708
1590 1 1.97397 -3.76707 4.30694
622 1 2.96798 22.9081 3.51675
1189 1 -9.45018 -4.1711 17.3952
1279 1 -10.4824 37.3221 17.8827
1185 1 -9.68822 -3.04292 -10.465
397 1 4.9404 10.2484 16.9916
540 1 5.28784 -4.25744 3.96157
1394 1 5.97463 -17.4684 30.6931
730 1 18.2891 37.5578 -9.1623
1615 1 7.04988 -3.79357 17.1375
285 1 22.4167 -18.0965 4.21949
11 1 -5.4308 -3.53674 3.36636
726 1 7.67606 22.9256 -9.82752
998 1 -17.2259 9.53971 4.263
357 1 9.29107 -3.69185 3.13419
2009 1 -16.1982 10.3665 16.77
2029 1 -2.07206 23.3785 3.8427
72 1 12.4539 -4.27604 -22.8818
1393 1 -14.0416 9.25796 17.0711
1232 1 13.4918 24.1357 17.4809
966 1 12.5489 10.2165 -9.95611
1385 1 -0.210764 9.5597 -9.38016
1126 1 0.949932 11.9147 16.8254
1924 1 0.138238 11.5386 3.83447
477 1 28.5143 24.6244 17.5546
260 1 -10.863 -1.65288 3.3916
334 1 1.52743 -1.7101 4.41068
1651 1 15.595 -2.31205 30.6815
2043 1 16.2492 11.9431 18.1919
1516 1 17.739 25.8254 4.06898
959 1 3.32348 24.9045 3.90413
246 1 -9.1317 11.248 -23.0833
66 1 18.4138 -29.4675 3.26858
1555 1 5.52483 -2.82276 4.08111
1223 1 5.16013 -1.57856 4.17441
81 1 20.242 -2.78375 3.78094
561 1 7.43845 11.5649 4.18128
895 1 33.7824 -1.84549 -9.17632
1411 1 -5.17716 -2.97596 17.8538
2021 1 -4.79213 11.0366 17.0004
560 1 8.21918 25.732 17.3856
1604 1 9.30819 25.687 16.7711
1995 1 -3.45225 25.5668 3.86181
1961 1 10.5901 -2.95752 17.7177
1589 1 9.58387 11.0219 -9.30224
553 1 11.7173 -16.0419 3.843
331 1 12.2275 12.1532 -10.3914
38 1 -0.839355 11.4436 -9.41742
1608 1 -13.1162 -14.9153 17.6704
1834 1 0.0571881 -13.8561 17.8553
623 1 29.3919 -14.3565 3.69175
707 1 4.35528 -0.447717 -9.84414
102 1 3.31184 26.6706 -23.4597
1182 1 32.8803 13.2797 4.14527
804 1 -7.83424 -1.24882 17.1261
550 1 -7.26864 -0.0319651 31.0036
115 1 7.4889 12.7458 31.1538
1277 1 8.76041 -0.726525 16.9347
626 1 8.59643 -0.454201 -23.0981
1732 1 -3.82449 40.3631 3.62111
728 1 9.27837 26.0255 4.1377
955 1 -1.68226 -0.49175 -10.6314
1509 1 -1.97761 12.8966 -9.69059
1235 1 10.7637 -0.933782 4.35915
546 1 -2.82255 -0.471111 16.9219
1181 1 12.665 -0.270075 17.4493
1990 1 14.729 14.5821 5.853
1401 1 14.7538 -13.3644 18.7153
1090 1 -13.4671 -13.6628 19.0685
1328 1 2.46664 14.7099 4.82998
950 1 2.01371 27.8741 -21.7597
1923 1 -9.52437 14.2595 5.48763
1408 1 16.7262 0.458701 19.1847
964 1 6.05179 14.1416 4.59865
600 1 5.40713 14.3675 -8.38223
578 1 6.53442 14.7343 5.36183
523 1 21.2701 14.9585 32.8031
1634 1 6.79595 13.6969 32.5728
965 1 -5.85853 0.353845 5.85
910 1 22.4227 14.5322 -7.88801
1467 1 35.5945 0.582577 18.3543
58 1 23.2804 1.46808 5.29546
1507 1 10.5958 15.0488 19.3883
881 1 9.34052 0.113146 -8.9636
628 1 10.2872 0.539417 5.24188
700 1 11.5986 0.879662 5.41016
1147 1 -16.3768 -13.5643 18.3378
308 1 12.8197 0.413406 5.67811
900 1 -0.0325761 -12.7309 6.0212
1998 1 13.2464 1.33936 18.6547
634 1 14.277 2.85413 4.57741
1155 1 0.52023 15.4858 -8.49419
770 1 -12.3639 -10.9785 5.34151
1437 1 15.8429 -11.2807 18.4573
1654 1 1.71052 1.6016 5.35401
648 1 16.5132 -11.0988 5.7259
614 1 16.8413 1.53812 19.1052
1514 1 17.4506 2.23176 18.9572
162 1 5.39944 15.3367 -22.5609
565 1 4.65798 16.716 5.68293
1202 1 19.0575 2.06733 19.676
504 1 48.3261 15.8579 4.8886
65 1 6.3178 15.934 18.9752
427 1 -6.45239 -11.6309 19.6229
844 1 8.57125 1.60925 5.05405
1134 1 22.5486 -24.7341 5.59016
1174 1 7.85607 2.82386 18.96
473 1 10.3843 1.61576 -22.7524
1638 1 22.8475 29.7651 32.0257
332 1 -17.0803 16.1002 5.71985
591 1 10.2736 -10.869 4.62564
1133 1 -15.7594 -10.7725 5.04814
576 1 11.9089 15.5497 -8.64897
803 1 -2.09723 -11.0863 -7.65323
1399 1 12.5693 15.8363 19.4313
577 1 13.6251 2.89593 -8.26885
1731 1 -12.2705 31.3412 19.6521
1170 1 14.7457 3.84212 4.87229
616 1 0.556975 3.43051 -7.70547
589 1 2.11397 17.0122 -8.2679
39 1 15.6473 4.34601 -8.45371
1319 1 2.83841 4.25489 5.84109
1194 1 3.42397 31.054 18.7486
1559 1 4.32628 3.52662 18.3416
1525 1 18.987 4.2038 19.0243
669 1 -8.99981 -23.3807 6.07666
521 1 19.5815 3.37343 -8.32042
1869 1 6.95649 16.959 18.7604
1723 1 8.28969 17.8739 18.4186
1258 1 -18.7049 16.9829 4.75859
1028 1 -5.35577 -9.96029 -7.9114
1457 1 9.6146 31.1312 18.968
415 1 37.7866 18.157 5.54198
1581 1 -2.11334 3.90677 4.586
702 1 24.4435 17.008 -8.3151
456 1 -0.0317422 -9.78261 4.94756
278 1 -1.1862 -24.0411 5.88168
1014 1 -1.17527 4.47917 -7.93772
1857 1 0.808412 -7.82887 18.9016
83 1 14.7035 18.5034 5.40004
705 1 1.74736 5.65024 18.6806
1204 1 17.6268 -9.08748 19.2915
1862 1 16.8015 32.6164 18.821
1292 1 17.6738 5.67206 33.0801
1547 1 19.2276 -22.2177 18.656
133 1 -8.8096 18.7371 -7.76271
559 1 19.5181 -7.63886 5.63377
1433 1 19.9065 4.73278 19.298
463 1 6.88052 5.35156 4.75174
1897 1 7.603 -21.5879 -21.7433
1942 1 8.63655 19.5975 5.47244
480 1 8.26154 18.5517 -8.00038
171 1 -3.04551 18.9313 18.5815
56 1 -3.94092 19.5069 -8.63937
996 1 -3.18813 19.1525 5.99188
189 1 22.8651 4.82062 -8.53532
1808 1 11.691 -22.5823 18.8773
400 1 -2.22366 5.79562 19.0617
1628 1 -1.20335 5.61082 5.84178
286 1 12.6944 19.0088 -8.80702
113 1 13.4728 18.4116 5.5332
52 1 14.5433 7.03113 5.27751
175 1 2.93969 -7.15885 5.16341
1573 1 15.7433 -20.9564 -8.05408
461 1 -11.6158 21.141 18.873
1733 1 3.82457 34.5518 5.65089
941 1 4.01246 -7.29959 18.5643
1821 1 -10.1299 -6.21009 32.0734
1982 1 19.4911 6.90102 4.87814
566 1 18.6011 -6.84427 -8.42818
597 1 5.81459 7.54026 5.96477
848 1 -6.84399 -7.29055 32.1415
866 1 -6.7919 -7.01758 -7.87535
2047 1 21.4817 20.4524 32.6282
519 1 9.18431 -6.74955 18.5696
178 1 22.9932 6.65569 -21.3615
530 1 23.9364 -6.83316 4.95341
1396 1 24.895 6.72366 19.0423
443 1 -1.98975 34.9477 -7.99029
2038 1 -13.7629 6.43415 32.8541
143 1 -0.209701 -21.2725 -9.09412
875 1 12.4863 -7.30959 18.7905
665 1 26.5095 7.31242 19.33
868 1 -1.43525 7.48256 32.0575
1110 1 28.4315 -5.76465 18.3666
684 1 1.13666 21.7737 -7.69944
188 1 15.049 22.7877 19.5936
1097 1 0.399033 22.6215 18.7443
1560 1 -10.7924 -5.50073 5.20172
880 1 1.89184 8.56158 -8.53595
1331 1 -9.72826 -5.36558 5.59377
1257 1 19.38 22.4336 4.62135
933 1 5.22981 -6.00067 4.68999
1781 1 5.22669 22.1487 -8.08499
1893 1 7.25083 8.76599 19.3027
1969 1 6.21934 22.7456 19.3844
805 1 -6.57574 21.4674 -8.71148
1816 1 20.9499 7.79493 5.92081
856 1 7.93932 -4.8763 4.81899
943 1 -5.54311 -6.01179 -8.78948
1184 1 22.5639 -4.89573 -8.2836
821 1 8.10857 21.9552 5.82544
1594 1 10.4805 -5.10783 5.48599
253 1 -4.06096 8.73793 4.62554
60 1 23.9558 7.79502 18.298
235 1 -4.32051 21.3923 -8.01035
1354 1 11.6636 8.90789 19.1632
1648 1 -2.41122 7.79077 4.74063
224 1 13.6009 8.04158 19.0769
1043 1 -1.08748 -5.16299 18.7555
1106 1 -12.5712 9.65139 5.12147
1073 1 13.7328 -3.17912 -8.81875
678 1 13.9119 9.77721 -7.75607
1125 1 1.11505 -3.34444 19.4789
872 1 2.15693 -3.7004 5.29986
1787 1 2.7361 9.21691 -8.83468
88 1 16.8922 22.8045 -7.88477
1061 1 3.82102 -4.4864 4.81916
2045 1 17.8604 9.4988 -7.99337
126 1 17.3615 -3.2838 18.81
2016 1 16.7832 10.263 33.2734
859 1 18.7172 -17.8895 18.7603
2005 1 5.99743 9.99035 -9.03958
1997 1 -7.63154 10.1241 19.3423
1498 1 6.88569 9.49924 4.71994
1575 1 -20.101 -3.36643 5.49609
2017 1 -5.88775 10.0291 18.3228
2019 1 -19.3536 23.2391 19.3308
1986 1 8.51755 10.5784 5.38118
938 1 22.8551 10.1085 18.3965
683 1 24.0749 10.383 5.22405
2007 1 -4.10784 23.5017 19.3496
1754 1 25.0665 23.8394 18.624
198 1 -2.8673 23.2887 5.8023
1868 1 -1.69497 9.97347 5.77987
1714 1 26.7537 -4.39337 19.1813
1323 1 12.5854 -3.17364 4.73246
582 1 -26.8054 -2.15149 -8.80718
877 1 14.1731 -2.2673 19.5063
1046 1 1.56679 -2.22697 5.58948
59 1 2.66054 10.6875 -9.09704
2020 1 1.53868 10.7784 18.5297
1586 1 -11.0493 11.3031 5.33106
24 1 3.56406 -2.16113 4.89426
631 1 4.5447 11.5172 -8.09449
1521 1 3.6368 -2.37824 19.6839
1505 1 -8.42448 10.6987 -8.54544
273 1 19.1621 11.715 5.10549
1626 1 7.30268 -15.6241 18.871
715 1 6.46373 10.8791 4.98239
165 1 -7.30189 12.1 -8.04283
1582 1 8.59769 -2.02613 4.78608
1034 1 -5.45787 -2.1792 19.7233
1504 1 23.8371 -1.84893 18.6701
1357 1 -4.06813 10.9442 5.69345
857 1 11.2306 -15.4258 4.78915
572 1 -16.1324 11.1196 5.36708
1820 1 -1.36266 -2.67297 19.3878
1138 1 13.3481 -1.78987 -8.25654
330 1 15.1471 -0.648571 4.7166
1751 1 14.5405 12.3624 5.97844
1039 1 0.500086 12.6175 18.7429
1674 1 -12.3143 -0.419314 19.4203
1206 1 2.60468 -0.627835 32.2344
1077 1 16.6447 -14.9896 5.63372
218 1 16.4342 13.2618 5.93626
1819 1 17.3307 12.6169 18.5428
111 1 3.83363 13.1972 -8.00954
359 1 18.3794 -0.236667 -8.72623
1662 1 4.72655 12.4838 5.2847
1577 1 -8.60048 -0.290822 19.6025
317 1 5.86699 -14.6471 4.93238
1093 1 6.8768 -1.03522 18.5722
1935 1 21.0467 26.6381 19.5124
1131 1 6.19968 -0.617424 -7.71451
897 1 -5.68843 12.5151 4.67199
640 1 22.0207 -27.7261 5.28145
1981 1 8.92622 12.2292 19.2402
1558 1 22.8527 -0.056472 19.7131
1840 1 -3.17331 -0.652744 -8.40277
503 1 -4.32163 12.8533 -8.6548
1647 1 10.0025 -1.2843 19.5269
975 1 -2.15847 -0.46166 32.9712
1985 1 -15.1142 -1.28821 18.9411
28 1 12.3178 -0.150803 4.74282
1281 1 -14.4064 -14.6532 4.57207
1430 1 26.6913 -0.578837 -8.19292
1607 1 15.1488 1.51551 33.9549
724 1 14.3277 14.8999 7.32813
47 1 0.79627 -13.2505 -6.93673
797 1 2.34476 0.935452 -20.9544
772 1 2.81787 0.303708 20.9693
426 1 1.7664 41.1224 6.56097
1171 1 17.0272 1.02745 6.38671
360 1 -10.0122 13.7643 -6.97518
168 1 17.8514 0.835758 7.48681
1912 1 18.4943 0.522847 6.54367
1414 1 5.90145 13.8424 6.60345
1956 1 -7.92908 -12.57 6.12983
524 1 -6.24494 -12.9625 -6.50387
921 1 6.84363 1.02326 6.41271
734 1 -7.21816 0.521062 -6.23635
1334 1 6.43858 1.49412 20.8872
386 1 -5.68299 -12.3958 20.0909
1353 1 -18.8044 -26.6902 7.06733
1284 1 -3.99916 1.06887 7.08221
979 1 23.5603 0.776551 6.14595
1229 1 10.5385 0.492707 7.03596
1927 1 -2.6413 0.572713 6.15953
1337 1 11.544 0.160379 7.06158
583 1 -3.02971 1.48359 6.66705
370 1 12.0206 28.6477 -6.48563
1568 1 12.4227 1.243 19.9456
944 1 -0.862377 14.0485 6.82165
513 1 13.2347 -25.8683 7.1311
32 1 13.6031 0.452241 -6.20571
1234 1 0.45707 15.8516 7.32389
997 1 0.838333 43.0558 -7.53386
945 1 28.3467 16.6333 -6.73542
1207 1 2.6783 -12.0879 34.5216
1425 1 2.01294 16.2996 7.25138
15 1 15.539 -11.2999 19.8383
1994 1 -9.77931 15.4063 -6.60435
153 1 4.51566 15.2061 -7.46522
1724 1 17.7043 16.1533 6.34435
261 1 3.0412 16.1775 6.77952
288 1 17.4863 -10.9854 7.44099
817 1 5.34861 1.67074 7.05315
170 1 19.6903 2.33707 -6.11337
50 1 4.84877 -11.1515 -6.20179
361 1 19.9453 2.09304 6.41051
183 1 21.1568 -11.8699 7.14146
1975 1 7.00035 2.86772 -6.95083
1377 1 -4.64782 -11.7849 7.53935