ITEM: TIMESTEP
235000
ITEM: NUMBER OF ATOMS
2048
ITEM: BOX BOUNDS pp pp pp
0.0000000000000000e+00 1.3679807573413575e+01
0.0000000000000000e+00 1.3679807573413575e+01
0.0000000000000000e+00 1.3679807573413575e+01
ITEM: ATOMS id type xu yu zu
1291 1 -13.721 2.33998 2.06015
464 1 0.278542 15.435 14.9091
606 1 27.7021 14.007 1.79961
1011 1 -10.3426 13.8921 13.9791
748 1 -9.58026 12.8287 -0.172583
759 1 3.92264 13.9743 14.8205
922 1 19.0386 -13.7802 0.508452
1567 1 20.4217 2.06437 -14.6377
1909 1 5.72081 -14.2121 -0.363833
223 1 -7.19322 13.8159 -13.9763
1980 1 -7.33776 14.7301 15.5835
57 1 -7.0854 -0.645975 -1.18018
412 1 33.562 0.921859 -1.33871
1645 1 -6.1036 -0.0362453 -1.20868
215 1 7.45764 14.5835 1.36192
689 1 8.761 16.1535 -0.712831
1792 1 -5.49765 28.1118 14.2975
1357 1 -6.3665 13.6732 0.803986
982 1 9.55079 15.4258 -0.111793
1350 1 -16.7493 15.2896 15.0621
1392 1 24.1583 15.2827 12.9901
1135 1 -2.33855 1.359 14.374
882 1 11.0012 0.362242 13.1823
881 1 11.7298 2.30625 -12.5538
884 1 12.9251 1.86699 1.3336
1758 1 12.5048 30.3303 0.545048
673 1 12.3261 14.6469 0.926985
786 1 28.6859 -12.1935 13.6653
333 1 14.7546 1.87932 -0.945063
2043 1 14.113 15.0429 13.9897
249 1 2.47695 15.0367 14.8101
1434 1 16.2393 3.26534 2.06888
1251 1 0.940677 18.3715 30.6166
853 1 4.80579 -11.1805 0.312145
1045 1 17.3908 16.2898 0.266971
25 1 -7.36418 -12.4229 -14.0076
1515 1 19.0415 16.866 1.26394
1720 1 20.7247 14.6671 0.193948
1435 1 7.52231 16.8122 15.0705
1418 1 -8.48399 18.1453 13.022
590 1 7.62096 15.6186 0.787135
195 1 -5.20114 1.74878 13.8113
1829 1 8.2378 2.71665 -13.1072
1488 1 -3.23844 -10.8075 -12.7034
1764 1 -3.54027 17.544 -24.9812
2026 1 -4.60718 3.26743 27.9921
432 1 24.3731 15.9891 2.12394
840 1 13.0153 16.7388 -0.70222
1130 1 0.377734 2.82816 -0.791941
769 1 -1.00057 -24.5629 1.71799
421 1 -0.606997 3.79705 1.1521
1809 1 -0.47688 -9.07339 0.1509
53 1 29.3256 2.97042 16.6532
409 1 41.9343 -9.7362 -13.0108
1239 1 31.6589 4.13394 12.622
186 1 30.6025 -10.9251 1.22717
1361 1 3.42289 -11.4067 2.11992
1221 1 20.9582 3.01438 14.0978
722 1 19.9463 3.71028 15.1107
78 1 4.4131 -10.9322 -12.2559
405 1 7.65132 17.1514 -11.0928
828 1 -5.53401 5.19525 1.38438
328 1 8.89161 -9.93658 15.1384
552 1 -5.18783 2.73907 1.61694
1502 1 8.10609 17.1346 13.4799
21 1 -4.08603 -10.6373 -12.0537
182 1 11.6122 -24.2854 -27.3062
26 1 10.9644 3.6757 -11.9331
1022 1 24.381 -11.0692 -0.303423
985 1 26.5067 -9.1028 12.8741
843 1 66.6224 3.59129 14.789
1420 1 26.037 -22.6787 14.8593
12 1 0.934637 18.0659 1.95202
1803 1 13.531 -6.20172 15.1735
732 1 15.5196 17.7327 15.1774
515 1 -0.812986 7.84788 14.5722
1332 1 16.3396 4.24604 14.4629
1198 1 2.60773 19.4424 1.22162
555 1 18.299 3.57541 14.3129
342 1 17.285 -9.76556 14.7521
1149 1 4.90926 5.16373 0.0827202
156 1 19.2525 17.8234 14.044
1114 1 -9.3037 -8.17807 0.855915
855 1 3.46667 5.6681 13.8674
1835 1 -7.14745 4.81755 1.78117
894 1 8.33076 6.18516 1.2271
1122 1 5.36082 6.42084 13.8325
93 1 7.15958 18.6218 -12.8442
1901 1 6.92551 5.81932 27.532
1008 1 21.5657 3.93389 0.791012
63 1 8.4635 -8.70625 14.0812
1274 1 8.66272 21.0312 -0.413582
1339 1 24.7149 -23.4387 14.3009
1456 1 10.8257 18.4593 14.7727
1892 1 12.1779 4.94349 16.4411
930 1 -2.72416 18.4608 13.5365
834 1 -1.98502 -8.37919 14.0868
1522 1 12.4456 47.0373 0.814175
1523 1 -1.65198 4.2022 13.7433
356 1 28.5403 17.1306 13.3972
924 1 13.562 -5.17726 15.0753
5 1 0.825997 6.15301 -13.1901
1002 1 26.582 20.3425 15.4695
1422 1 1.94835 7.7646 14.5548
1378 1 16.143 -8.44032 27.6071
321 1 16.3603 -6.23299 -13.5201
489 1 1.95531 6.54018 0.630602
1967 1 30.9533 5.96708 1.6188
447 1 20.1069 -6.96817 0.450264
217 1 5.31696 21.0253 0.649413
1127 1 -8.18718 6.67102 1.53829
1268 1 7.38067 20.7687 0.620198
1212 1 -7.47719 -19.2862 1.77365
252 1 7.05277 6.12728 1.04506
1348 1 6.54025 -6.73201 15.1311
1925 1 22.8675 33.2182 0.482411
1765 1 9.02699 6.9286 28.3993
1527 1 -3.57524 6.38932 2.60466
18 1 10.8467 19.6285 1.61517
1691 1 -2.25215 5.01023 1.86831
1316 1 -2.579 -7.54789 2.79229
1712 1 -2.30381 -5.40672 1.02406
2033 1 13.7687 21.4015 3.56862
1822 1 -14.9364 6.87712 13.8698
1115 1 14.2903 -4.4028 14.296
1977 1 13.7176 9.86582 27.008
740 1 1.83515 9.87127 14.6127
568 1 29.5128 -4.84204 0.772985
1501 1 16.4819 22.0367 11.6703
1668 1 -10.3356 21.4746 14.6463
1196 1 -8.80835 20.7456 -14.1019
755 1 4.55129 -7.13148 0.884081
534 1 -10.5246 -7.00402 -12.948
1784 1 3.70351 20.8459 13.7251
1893 1 4.73737 7.85685 15.858
130 1 6.78964 9.04702 -11.225
490 1 -7.9575 22.6648 -25.6514
711 1 -7.40503 7.90349 14.3524
1347 1 -19.7963 7.25088 15.5125
383 1 8.64365 8.62531 -1.08273
187 1 8.63373 -5.86017 0.557114
1067 1 -6.01735 21.561 13.7336
978 1 10.3983 21.9004 0.621353
1838 1 9.61166 8.03318 -1.16787
1253 1 25.1066 24.3886 1.36137
1225 1 26.0108 8.76949 0.346099
203 1 -28.5709 22.335 15.2902
1679 1 12.9162 24.1798 27.3333
1993 1 -12.5909 25.6128 1.33607
1385 1 2.82003 9.61049 -12.2741
2001 1 12.9051 -17.9067 0.912866
1296 1 2.61583 8.55843 13.4286
132 1 16.518 -5.091 15.2526
387 1 3.41172 -4.56025 13.0437
230 1 17.0692 10.5096 14.6803
810 1 -9.59365 -16.8501 15.6585
260 1 -10.4572 -4.71467 0.522205
1512 1 4.63513 -4.75083 -0.524758
1916 1 5.42809 10.1604 28.5896
1351 1 -23.2796 8.70304 14.8908
1462 1 -8.57324 9.1161 -13.1308
1459 1 7.56829 -3.897 27.8175
64 1 22.087 10.1617 1.36804
520 1 -6.87864 -31.5239 -0.241196
654 1 6.36877 36.3816 -13.0652
1517 1 21.9608 8.95881 14.8723
1971 1 -4.27981 8.44405 -13.9229
747 1 -5.47178 8.00187 1.61408
790 1 -3.96786 10.9679 0.660195
1403 1 10.6254 10.1266 -0.561014
1500 1 11.7219 -3.17665 27.0178
999 1 -15.8857 26.1177 0.784695
1235 1 10.193 -2.61466 -0.53273
1766 1 13.8017 10.1627 14.4088
779 1 -0.995129 -5.63825 -11.2667
1503 1 28.4023 26.2363 14.0058
774 1 27.8965 -2.69645 1.94451
1041 1 -10.9538 -42.0184 0.649485
1000 1 1.08009 23.8542 13.9799
1164 1 15.8398 12.2645 13.336
593 1 4.76399 -2.75609 1.06593
1384 1 2.90032 -15.8922 41.5298
1491 1 17.7103 12.0016 27.8847
1276 1 -7.32078 -14.897 -13.6564
1959 1 -9.31348 27.7424 0.039852
1416 1 6.28628 -16.5286 -12.9477
1681 1 -21.4886 12.2176 12.7631
688 1 7.0681 -2.20575 1.63329
1888 1 7.2314 10.3277 15.4357
1880 1 -4.50433 9.54332 0.58987
611 1 -3.62961 11.2326 1.99341
518 1 -4.85422 -2.52581 1.22348
1725 1 9.95649 -1.60386 0.557476
1244 1 8.87784 25.9405 0.478912
1510 1 10.4979 24.0019 14.3302
322 1 -2.76122 -15.1296 -0.186305
1790 1 12.165 -0.929148 1.61741
655 1 13.0456 15.0071 -13.7439
1947 1 12.3818 -29.3748 1.23965
1548 1 -15.1017 -30.6771 -12.9425
98 1 0.471248 -0.796417 1.36627
102 1 1.8723 26.9424 -27.23
1915 1 27.898 -1.27417 3.49651
1037 1 -10.7043 -28.2384 -0.615994
161 1 -10.4484 12.2839 15.1396
1445 1 -11.1987 25.8301 12.2778
1663 1 15.2649 -1.05782 -11.5516
538 1 4.74925 28.3113 0.696301
1871 1 5.17693 -2.54033 13.5249
344 1 30.5876 -1.85586 -2.15299
1736 1 3.98683 25.7301 15.9559
236 1 4.62724 -1.56597 1.32475
1270 1 20.4353 -15.0596 14.6923
1682 1 22.2684 12.2312 28.8885
682 1 -7.91339 -1.39465 1.2321
2010 1 21.3039 13.9034 -0.163967
1463 1 8.17495 26.7296 14.4029
815 1 7.76981 -1.68934 14.4879
1413 1 -6.16946 12.5065 -1.35074
1118 1 9.69962 13.963 0.889666
74 1 -3.37627 27.0859 15.5468
1746 1 8.27154 -0.583788 13.1924
1081 1 23.0647 26.6243 -12.4445
391 1 9.27103 -14.4134 -0.317462
1710 1 10.178 -0.290322 0.076797
468 1 -3.12076 12.8502 -26.4246
762 1 13.0678 26.9539 -12.1432
1159 1 -15.8346 -12.738 28.981
1757 1 -1.11132 -0.367725 -10.4222
1735 1 -13.9996 1.29666 2.19136
1635 1 12.5335 0.851576 15.5595
557 1 14.9895 1.05057 -9.69905
304 1 -12.1573 13.6532 15.3755
927 1 -13.015 1.42085 16.0941
776 1 2.35621 14.1899 13.8108
634 1 14.6224 2.23467 3.58703
1599 1 43.4967 13.6561 28.2993
29 1 32.9165 1.64339 14.004
1777 1 17.0124 28.2577 15.3372
1146 1 -10.8902 -0.243636 15.5181
1088 1 -6.50265 27.4465 1.87687
804 1 -7.58223 -0.736486 16.6607
1741 1 6.20643 -0.497548 28.6307
1604 1 7.99646 26.9956 15.8154
1415 1 9.17062 14.7366 2.49103
663 1 9.33029 1.35417 14.5032
1687 1 -6.15114 2.14036 42.9402
1677 1 -5.11528 13.1651 3.12017
1283 1 23.7083 0.889478 15.4736
1739 1 22.4036 -13.5622 1.48694
1664 1 23.1348 15.1476 3.38189
473 1 9.68894 0.710626 -23.1604
1103 1 24.2166 1.29541 3.66311
1375 1 10.2536 -25.6595 -10.9719
1810 1 -2.56541 2.30646 16.8124
1985 1 -14.0288 -1.8639 16.4602
1906 1 -0.241267 2.16496 -10.6273
1703 1 -12.6339 2.74666 0.41338
139 1 3.33129 17.1106 -10.5812
255 1 14.3331 3.0061 2.65646
1170 1 15.054 2.1008 2.50306
271 1 16.5029 2.34287 -10.5236
1155 1 2.27299 15.9875 -11.9932
760 1 4.29458 1.77436 14.7636
1824 1 31.9971 0.647795 15.776
923 1 -10.0361 16.9429 29.499
1780 1 20.9138 1.32361 2.40203
82 1 6.19823 2.55029 3.27063
1277 1 5.48038 3.04177 16.014
1197 1 5.42451 29.1961 1.39539
1382 1 6.08153 0.821772 -12.905
485 1 6.46685 2.13416 15.2979
550 1 -5.56284 0.726715 29.6283
1306 1 -5.23088 29.0787 28.7361
90 1 7.55697 -11.1557 -10.8019
49 1 9.0141 2.44877 3.05446
193 1 -17.8202 16.0603 0.843878
643 1 -4.01188 -11.7566 1.86452
86 1 49.9399 -10.0699 16.1331
1620 1 -1.86109 1.84853 2.23766
1153 1 25.2849 -10.8426 -11.6774
497 1 -3.81712 2.77933 -11.1222
1428 1 13.8336 16.6366 1.11654
445 1 -1.23173 2.90082 -10.9537
1738 1 1.2295 -10.2642 17.2418
876 1 14.8034 43.509 1.46333
1886 1 15.5008 32.6509 16.8512
656 1 18.321 17.3539 29.2896
309 1 -11.9195 -11.6559 14.401
267 1 -10.052 -8.55436 3.67029
269 1 4.51872 3.54787 -10.4914
1085 1 5.80445 -9.5104 16.1079
1643 1 4.5697 -9.05299 18.6469
1431 1 4.78756 18.1201 16.2302
1152 1 20.4282 16.731 15.932
69 1 5.6956 -10.0165 -10.3971
33 1 -6.58517 3.19663 -10.2156
784 1 8.25133 3.17116 -23.7277
1646 1 8.16073 -9.37183 1.98649
1740 1 8.0498 2.23251 17.4873
1477 1 22.231 18.9331 16.1773
482 1 -4.4537 18.2496 2.07781
1535 1 23.6471 3.93889 28.583
1269 1 9.49433 18.2441 16.821
1926 1 -2.49872 4.25103 30.1053
1707 1 10.0988 5.06034 2.2348
1006 1 -28.9547 31.1373 29.7876
1788 1 10.8382 16.9539 4.29423
1389 1 -12.1276 14.6005 -12.3398
1564 1 13.6373 3.52707 15.7265
1591 1 13.8096 -9.46682 16.4881
1688 1 13.2629 3.26775 16.8499
629 1 1.44352 3.21805 1.99891
1485 1 1.21275 5.47278 2.02797
470 1 2.95436 -9.5061 15.6164
262 1 2.25975 5.01416 -11.6958
289 1 29.7759 -7.63761 -24.8527
698 1 44.3749 18.7513 1.45782
201 1 18.3544 6.33593 2.04374
718 1 3.55525 19.0631 16.0959
452 1 19.0795 4.50539 1.25905
1939 1 7.25023 -9.62271 15.3424
1550 1 33.9738 5.95695 1.89408
1957 1 5.38865 5.70091 1.36523
1150 1 6.88884 17.5844 -13.5374
467 1 7.67266 6.11605 -11.6469
4 1 -17.9283 19.3269 -10.8243
104 1 9.40342 4.15041 17.7571
1492 1 34.828 -22.3116 15.8462
1583 1 -5.00015 32.574 30.8608
666 1 -4.48525 18.8569 13.3454
1842 1 11.2862 5.1128 16.928
112 1 -0.753332 19.3139 15.5903
1837 1 -0.729775 -9.29366 29.4692
1017 1 13.8156 33.5928 -12.2314
1950 1 42.3513 -7.42298 30.0595
829 1 28.321 35.9089 17.1595
1368 1 29.0941 -7.40893 31.2099
1921 1 -25.7142 7.46101 15.5358
1875 1 15.4799 -18.9584 2.48228
525 1 1.48215 20.018 1.48446
594 1 3.96463 -6.45342 29.0972
1063 1 17.0287 6.11195 -10.3829
1816 1 20.0391 7.65766 2.7802
1885 1 6.99597 6.83726 2.48358
968 1 8.30222 7.46816 -11.1034
357 1 7.07383 -7.31172 3.48524
783 1 -5.68565 -20.8396 -10.7914
295 1 -4.60316 19.9342 1.89949
118 1 22.9664 -22.6301 28.3988
977 1 23.6787 20.4524 15.3414
1750 1 37.9175 -5.7139 1.59836
205 1 -15.4494 6.34753 1.80183
222 1 -1.56714 7.3201 1.39741
124 1 14.8387 7.57285 -10.5939
1841 1 28.0867 -6.71425 -11.8198
350 1 40.7543 -6.35268 -11.2176
1940 1 16.0887 7.17353 16.4828
1960 1 0.438968 21.62 14.4295
248 1 17.3969 22.0186 2.05828
1588 1 5.104 -19.1254 1.2665
180 1 2.93852 -19.7366 -11.6328
556 1 5.46834 8.59134 2.91724
1257 1 17.8843 20.5788 2.79654
1178 1 19.1426 9.86522 2.32261
1482 1 5.83136 6.36665 2.48283
1986 1 6.53458 8.68734 3.54497
1799 1 7.35626 -19.196 2.77752
1474 1 21.621 34.8954 3.5606
1982 1 20.8756 7.90978 1.1492
1684 1 9.72082 8.42362 16.4213
376 1 23.493 8.95368 28.5302
1192 1 23.1782 7.3568 16.0656
430 1 -4.2527 21.5224 28.7778
836 1 10.3647 7.53263 3.15169
871 1 -2.99226 9.33516 0.435576
1563 1 23.54 -34.5111 0.642491
537 1 10.7437 7.13693 2.25759
259 1 -2.03003 37.5465 -11.4961
3 1 -0.959185 -6.38128 3.46596
1747 1 -1.87637 20.8111 2.44794
615 1 14.1603 -5.67259 16.134
719 1 1.87922 9.1541 1.70346
1787 1 1.01645 9.77234 -12.248
737 1 -12.3802 10.7418 28.5158
1468 1 17.6101 9.90935 16.6187
1494 1 18.3573 8.94673 15.9761
353 1 2.91143 10.4019 2.22083
144 1 -24.9053 8.11048 3.2053
111 1 3.55336 9.47904 -11.6859
1097 1 4.30339 21.3588 14.4098
1498 1 4.87892 9.73865 3.18856
413 1 20.8512 9.67389 3.22314
1343 1 4.50853 10.6627 3.38758
1823 1 7.41897 36.1524 1.72376
695 1 22.0194 22.4192 2.5922
299 1 6.52679 -3.9571 -25.9669
561 1 6.40386 10.6568 3.8045
1054 1 20.135 -3.60403 2.38909
1231 1 35.2627 -4.1088 15.7194
1641 1 9.05672 10.5522 15.9573
349 1 21.1433 10.6369 30.0814
1711 1 24.384 8.95607 15.6356
1448 1 9.21666 -18.2029 2.0196
1489 1 25.0437 -5.69624 3.08007
72 1 11.1184 -2.45707 -27.4657
1311 1 11.4973 -17.9527 28.6862
714 1 -12.8373 8.76958 15.2624
1946 1 26.2837 23.4346 -10.4096
1752 1 26.6739 9.41619 2.36458
1354 1 11.0929 9.12198 16.8853
390 1 1.44229 -2.46123 2.20788
1881 1 13.7736 23.6357 15.6742
816 1 12.8252 24.8637 3.74976
959 1 -0.54235 24.2454 2.49838
570 1 29.6687 10.7569 1.35124
1852 1 1.99986 12.6488 17.2254
2016 1 15.9459 11.0123 30.2174
576 1 16.0592 12.1889 -11.0313
301 1 17.5128 -2.22107 15.1244
1279 1 -10.644 38.8603 16.2162
1615 1 3.89436 -2.38328 16.587
1317 1 4.77192 11.1895 2.29131
19 1 6.58691 11.019 2.99012
283 1 34.448 12.0821 2.86215
1851 1 -6.10793 -0.946694 1.52597
1156 1 -8.1518 38.0984 -10.7752
1642 1 10.4175 10.2807 -11.425
1443 1 9.74466 23.869 28.7504
549 1 -16.1551 -14.4631 -11.3034
1937 1 10.4107 25.9475 29.1918
940 1 9.3925 -1.01989 30.0137
1487 1 -1.13272 10.4532 15.3885
38 1 -1.57537 8.78997 -10.8715
1185 1 -15.3958 -2.45247 -11.2844
1608 1 -14.1298 -16.037 15.4774
987 1 13.3206 12.2868 -12.5261
1661 1 1.7979 12.7794 14.8396
1206 1 1.15321 -0.518996 30.1885
505 1 29.5207 -13.8714 30.1303
563 1 2.24664 -15.6829 1.5472
1715 1 4.14109 -14.0258 2.04207
638 1 31.4162 -0.918928 -10.4367
595 1 32.5686 12.6575 15.7417
1451 1 8.01944 -2.52718 2.11397
903 1 -5.39658 12.2897 2.62351
892 1 7.57784 -0.208464 18.0039
1109 1 32.5779 13.5796 1.49512
1464 1 -7.07349 12.5879 29.4375
1801 1 9.50126 13.7757 2.41706
44 1 -4.42125 -2.02965 2.54978
785 1 24.5134 -13.2899 0.934271
147 1 52.2869 13.9146 16.0474
336 1 12.1642 27.2286 16.0095
857 1 11.4041 -15.4935 1.63731
338 1 11.9048 11.7906 17.032
318 1 11.5361 -12.6037 -10.8387
1126 1 -0.189529 12.8921 16.3419
955 1 -1.73242 0.020021 -12.7582
1401 1 13.008 -15.1445 17.2816
370 1 12.9092 28.0158 -9.5025
59 1 2.64531 14.4472 -10.4294
997 1 -0.641206 41.3713 -8.5761
950 1 2.86823 29.86 -22.97
867 1 0.45504 0.325124 16.7833
1775 1 15.5737 28.9543 30.6499
24 1 1.36641 0.469763 2.62853
596 1 -9.39154 13.7191 3.27606
964 1 3.52186 14.1776 2.57699
789 1 5.20292 -27.5232 2.57888
158 1 -7.60951 0.109069 2.18088
65 1 5.35241 15.6445 17.8453
115 1 7.15963 14.1759 30.6622
703 1 8.33059 1.17977 3.38077
1467 1 36.1478 0.0990131 18.1304
626 1 9.14457 -1.1161 -22.473
680 1 -4.69126 -12.2538 18.0303
644 1 -3.31399 14.203 16.4051
1732 1 -3.67885 42.7922 4.5106
48 1 10.0255 13.4799 18.4972
1423 1 -16.3873 3.28448 3.06394
1558 1 25.4909 1.36006 17.534
1133 1 -16.4167 -11.4862 4.27052
2035 1 -14.6638 1.92836 3.70839
1039 1 -1.8312 13.9831 17.3214
577 1 12.4936 -0.577699 -9.43388
107 1 25.2165 -0.816659 3.51057
340 1 0.32958 1.3471 3.7232
1437 1 13.6154 -11.6821 18.1015
1990 1 14.4564 14.8686 5.12138
1194 1 1.8182 29.9559 17.8051
378 1 3.92695 -11.9452 3.77898
870 1 -10.5644 -12.1959 2.63932
1047 1 31.8428 2.43752 16.0437
909 1 5.40963 15.0338 -11.0004
1387 1 -7.34695 1.73149 16.3953
1611 1 7.01159 1.47626 17.2637
811 1 20.1925 -25.3228 4.30491
2048 1 6.60259 15.8399 19.1365
254 1 22.7361 29.7719 4.04248
508 1 9.10703 16.8299 18.9017
935 1 8.40707 1.84913 2.43869
1457 1 7.49391 30.3953 18.0682
1519 1 23.6433 2.72645 32.0661
946 1 -17.044 18.0891 3.60991
1095 1 10.0899 2.50889 3.59947
700 1 11.7126 2.96327 4.80177
1245 1 12.5092 3.79474 18.128
1446 1 -14.7319 -11.395 6.04579
1616 1 -0.576537 0.271592 2.72022
589 1 0.999195 15.7565 -8.96345
1730 1 -12.2431 5.15246 4.19717
1576 1 2.13494 3.55322 17.7066
1016 1 17.8795 14.887 16.455
110 1 31.334 2.71058 3.26278
1872 1 -9.62458 17.8312 17.7044
1627 1 -8.63109 -9.26545 3.82368
798 1 5.14791 2.39284 -10.5569
133 1 -7.01461 17.8893 -10.6183
1547 1 19.5368 -22.4228 16.9893
1538 1 -7.36653 17.5664 31.3841
1559 1 5.6739 4.10009 18.4409
1370 1 -20.3086 4.06019 4.84909
1716 1 23.0668 -24.0533 3.41529
1962 1 7.84519 5.77842 5.29177
838 1 -5.22783 -10.3069 -9.15488
527 1 23.3521 -8.50122 17.702
827 1 -1.12531 4.09121 16.9526
1460 1 11.269 4.14702 4.00871
862 1 -0.0842282 3.00065 4.08593
143 1 -1.91525 -24.1667 -9.97208
1581 1 -1.05485 2.83001 4.15017
310 1 -0.863666 30.1427 -8.57623
1508 1 -10.9839 19.1256 3.71039
466 1 1.05902 19.8551 4.83081
665 1 27.9617 4.08808 17.8831
352 1 27.3763 19.6038 -9.10191
536 1 1.99663 17.8 16.6157
212 1 1.44099 -9.56572 -8.45189
1475 1 -11.2944 5.91332 4.70014
1319 1 2.44006 4.61761 4.8876
1209 1 4.51663 5.27328 1.82089
1529 1 -10.666 4.10536 3.99982
1883 1 5.64832 5.25233 16.0151
1565 1 3.88285 4.47606 43.9905
428 1 6.87534 32.5946 16.7291
2034 1 8.59917 31.5395 3.32953
1525 1 20.4769 4.90821 17.8304
404 1 6.84782 5.54728 18.9219
947 1 7.73515 4.0251 17.702
1174 1 8.63261 4.75043 18.1392
1813 1 -4.58938 -7.7941 4.61312
1450 1 10.217 5.96157 4.65941
1650 1 10.771 5.03455 18.0414
1561 1 -1.50886 19.9143 16.5085
1857 1 -1.45449 -8.86725 17.6271
1009 1 13.0752 18.7586 3.35386
1894 1 -13.5251 5.22112 16.0907
1628 1 0.344176 5.24921 3.84993
435 1 1.91916 6.88362 4.64042
929 1 -11.262 6.73497 1.73412
1846 1 -9.73831 20.1737 17.7658
1932 1 16.5833 -22.7726 16.6586
1629 1 17.242 7.54255 18.2139
1476 1 6.13817 5.98579 3.74054
705 1 5.29977 7.45111 16.5508
1436 1 21.3374 4.47696 30.3349
706 1 6.01119 20.6619 -10.2646
2027 1 10.4961 -6.88185 -9.73258
253 1 -4.01135 8.34346 3.99194
726 1 9.04394 20.2636 -8.11919
805 1 -4.31897 21.1008 -10.0605
314 1 10.3998 5.72289 -23.7907
1534 1 -2.00714 19.5883 4.98619
775 1 11.4202 6.92767 17.113
1410 1 9.86367 5.69103 1.34733
2041 1 13.2049 6.08444 16.4859
1390 1 38.6854 19.7853 4.06555
1806 1 12.9309 -5.93453 18.1101
1169 1 26.9564 -7.08678 3.90078
256 1 14.0832 20.2934 -10.3347
2040 1 15.6821 -6.18924 3.82551
1970 1 -40.5835 -4.68943 29.9142
1349 1 -11.8045 23.968 15.9553
1232 1 15.3263 23.1231 16.3749
52 1 15.9268 9.0019 4.18712
539 1 2.70132 20.4484 -9.85344
1819 1 15.4882 9.60544 18.6157
880 1 3.28681 6.58322 -11.3315
188 1 17.2949 22.2754 16.6827
941 1 4.95109 -6.02838 18.144
1458 1 5.81555 21.6451 17.5412
137 1 18.721 -7.17749 3.6844
1061 1 4.27419 -5.73375 3.15053
1289 1 5.41355 -4.64932 17.6873
883 1 7.98354 -4.95056 17.1804
1398 1 20.5847 -6.29764 3.86664
973 1 6.69722 -4.17002 17.799
373 1 10.0778 9.36221 2.61651
285 1 22.6434 -17.915 4.64373
553 1 11.3489 -18.6424 5.01543
584 1 11.1017 8.44122 -9.59784
1934 1 -2.35029 -6.35254 -9.27303
55 1 25.2991 8.23718 -11.5866
1099 1 11.1134 -17.3547 5.64256
35 1 13.0452 -32.5745 3.44913
868 1 -0.00224012 9.37292 30.8608
622 1 1.17841 23.302 3.59265
429 1 28.4405 -4.16454 5.62237
749 1 0.78029 -3.52589 16.4065
1189 1 -12.5506 -2.98772 17.4083
730 1 16.3749 36.5142 -10.977
244 1 -25.0689 9.83077 3.39163
397 1 4.58602 8.72157 17.1989
897 1 -10.6297 9.99434 4.35801
1983 1 17.9461 9.82338 4.11561
547 1 -7.67773 -4.07482 3.38244
1083 1 21.1116 -3.24218 17.6515
2029 1 -5.8674 23.139 4.22758
1214 1 35.7108 37.042 -10.6939
2009 1 -19.2191 10.0505 19.4737
988 1 -17.7192 -3.57051 3.31461
1066 1 22.6841 -18.2073 3.62247
998 1 -17.5865 8.63705 4.95252
1160 1 -2.39389 -3.59355 17.6774
42 1 -15.3106 -3.08167 4.85162
368 1 12.09 8.13942 3.83141
1323 1 12.9954 -3.41337 4.61406
1961 1 12.0858 -4.46393 17.6673
582 1 -27.2127 -2.05986 -9.89411
1749 1 15.697 25.467 -8.89336
1077 1 14.4127 -16.1427 2.93579
895 1 30.4659 -3.09635 -10.337
273 1 16.6973 12.5477 3.79961
406 1 19.6143 -1.77041 -10.9898
1394 1 3.3574 -16.2717 31.7075
87 1 -7.03337 11.7145 17.5499
1637 1 6.98466 -1.8492 19.2033
1144 1 -7.97609 -1.37795 3.90704
386 1 -3.82551 -15.882 17.3742
910 1 22.4194 10.9526 -10.5582
1981 1 8.61015 10.1583 17.5276
1499 1 23.9926 -1.78735 2.87137
1181 1 10.9289 -2.60805 16.3062
174 1 10.7249 24.5785 17.4232
1660 1 -1.78221 24.2634 -10.4151
850 1 -0.570833 13.019 32.5736
1834 1 -1.15435 -15.0067 16.2542
1179 1 15.0941 -1.80468 -10.4924
623 1 27.7313 -13.3765 4.29409
872 1 0.934585 -2.25643 4.48409
88 1 13.779 24.3068 -10.0287
47 1 1.57534 -13.2559 -8.74783
334 1 1.32043 -0.0756285 3.92094
715 1 2.27276 14.5075 2.15856
1577 1 -10.5085 -0.196859 17.0105
66 1 16.9958 -28.3184 2.55879
246 1 -11.9822 13.4402 -21.4914
1388 1 -20.1202 -0.579031 16.8278
1167 1 -9.43136 13.6623 18.008
1626 1 3.44718 -14.4248 18.4063
1202 1 19.955 -0.1705 17.6214
316 1 8.79113 -1.82857 -23.7443
741 1 6.30633 13.6714 18.6395
521 1 21.4235 -2.35335 -10.2516
965 1 -5.19092 -1.00053 4.01356
628 1 9.52052 -1.20989 3.93304
2021 1 -3.4695 12.4273 18.4068
572 1 -17.9176 13.4549 3.65919
1638 1 26.3025 28.3849 30.5898
355 1 -2.9045 -13.3342 3.97798
1102 1 10.1648 9.30227 17.4494
1656 1 10.5813 -0.549973 3.22709
1674 1 -14.3165 -1.44317 18.3174
1609 1 0.544659 12.1955 2.32983
661 1 1.95654 28.7883 18.4577
1329 1 0.379637 -0.00349051 -8.15384
231 1 -0.118225 26.6735 19.9899
1516 1 17.3432 28.0944 3.56916
1651 1 16.8537 0.88838 32.6311
648 1 16.5366 -12.2297 4.06983
1408 1 15.3043 -0.0105718 20.8706
1724 1 14.5717 13.5898 6.58056
707 1 4.85388 0.770095 -9.82603
162 1 5.17398 13.5118 -23.6602
1654 1 5.14453 0.186114 4.71457
1472 1 -8.0542 16.6534 17.9741
1514 1 19.7837 0.533269 16.8008
153 1 5.53623 12.9761 -9.04049
1649 1 19.5275 14.6967 31.6395
129 1 20.9796 0.246327 5.48198
43 1 20.4922 -12.9573 4.32826
317 1 6.71859 -14.8302 4.49295
2042 1 8.30593 14.7883 19.0414
453 1 -18.3931 27.7879 -7.73486
1927 1 -3.19149 -0.918049 5.69958
640 1 21.9322 -27.4225 5.35041
728 1 10.9277 28.541 4.70477
1353 1 -15.4935 -25.472 5.03391
1998 1 12.3124 0.0319938 19.3445
1290 1 1.52799 0.914446 6.91207
717 1 13.1926 14.1358 19.9513
614 1 14.8377 2.09205 19.5322
1014 1 -0.0398877 2.44672 -7.78643
851 1 13.5992 15.0582 -21.8249
1240 1 3.61613 -10.4814 4.12916
1831 1 30.5759 -12.7431 19.9423
347 1 30.0639 15.5312 5.40058
720 1 -9.28725 2.49103 18.0528
852 1 -22.1778 0.640062 5.8236
891 1 18.5667 1.31677 4.90959
1731 1 -10.0685 29.2382 18.5262
1869 1 6.56943 16.651 18.5243
1533 1 20.097 14.6495 33.0322
221 1 21.3523 16.2225 5.83493
463 1 7.34941 1.75221 4.80255
1402 1 21.9425 -11.3842 18.6074
932 1 -6.4042 1.32959 5.97671
709 1 -3.78092 2.91542 -7.94179
1568 1 10.5515 2.58218 20.0991
1023 1 9.37169 0.882626 -8.50579
506 1 9.24067 15.5933 -8.3904
1255 1 -16.7188 1.83298 19.1453
513 1 10.7711 -25.8615 6.65405
1060 1 -16.4882 2.93251 -8.23936
1399 1 12.7605 15.3006 18.4705
974 1 -2.3114 17.9334 -7.68811
945 1 26.2371 14.8434 -7.72153
1211 1 28.3215 -10.5813 32.0976
1234 1 0.472421 17.1337 6.23489
39 1 16.7148 2.89286 -8.12352
1111 1 29.49 -26.5359 5.80934
101 1 3.35351 3.95437 -8.71043
1718 1 15.8039 -10.6727 18.8204
1690 1 4.12708 2.52716 5.53622
367 1 17.8283 17.5413 5.8394
917 1 18.1994 -10.1564 -8.91744
1079 1 5.16336 -25.173 -8.33208
512 1 18.1298 18.3845 6.6333
1719 1 19.5445 4.92343 -8.11442
480 1 6.2834 17.6216 -8.066
708 1 -19.1655 4.48426 19.8673
1065 1 -3.68996 18.2552 6.18596
315 1 21.7813 3.70483 5.43396
58 1 22.9204 5.32139 6.52132
60 1 23.6896 3.83583 18.9375
564 1 -18.6237 5.22399 5.62088
191 1 10.7195 4.96352 -8.28134
9 1 25.3321 18.5333 4.78165
1326 1 -16.1104 17.5515 18.7524
1284 1 -2.74223 4.96436 6.66659
1090 1 -13.7541 -10.2455 18.7894
601 1 12.366 18.0419 -8.22659
1393 1 -12.491 7.22562 19.2001
113 1 15.8198 20.1516 5.63737
1958 1 -12.037 19.1347 -8.29018
788 1 15.7998 -9.07295 6.65895
461 1 -9.46282 19.611 18.6744
83 1 14.9496 17.7095 6.74506
425 1 3.6077 4.97102 -8.64732
669 1 -9.44749 -22.1724 5.76102
237 1 -8.95832 -8.12646 -10.8189
1204 1 18.8959 -8.07265 18.8687
1850 1 -8.74165 -21.0058 33.2948
713 1 18.329 32.8292 -9.55671
597 1 5.73989 5.17122 4.36347
571 1 7.27772 6.08187 6.0681
1258 1 -19.6958 18.4576 5.06672
559 1 21.379 -8.31397 4.13793
1123 1 -3.66715 6.8124 -7.51342
1670 1 -3.98959 5.81284 19.3393
456 1 -2.95469 -7.70522 5.74966
875 1 9.7294 -8.75658 18.7692
1859 1 -2.03513 20.2741 19.4091
822 1 -15.4525 19.0454 5.8745
449 1 -0.993661 19.154 4.76655
167 1 -1.30589 5.91782 3.84275
770 1 -14.0058 -9.46553 3.98634
1371 1 0.596246 -8.0934 -8.01345
1686 1 28.0848 -8.67387 4.86477
1312 1 1.92676 7.93796 18.9488
1552 1 -10.4718 -7.47641 5.36868
1013 1 27.4459 34.3796 4.88092
1762 1 2.78174 5.12598 -7.96012
678 1 17.0334 6.37227 -7.2142
2038 1 -11.6232 5.72375 33.7185
1562 1 17.0191 -21.6209 31.7799
1862 1 17.9456 34.6182 18.9361
1876 1 19.6013 20.3987 4.40115
1335 1 5.06168 20.128 4.76028
1743 1 18.6977 8.72788 5.26276
1433 1 19.7543 7.88472 19.6025
1897 1 8.30531 -20.9948 -23.3802
551 1 -6.12139 -6.33662 4.79169
1942 1 7.32877 21.6948 5.53998
856 1 6.98545 -5.80146 6.47022
630 1 20.0446 -6.14025 32.2881
1479 1 -19.3539 34.32 20.0785
1163 1 -3.13607 21.7765 5.54953
1631 1 22.3214 7.77904 -9.42579
896 1 10.6916 -6.81585 5.09985
907 1 23.3096 -7.39235 3.79552
189 1 23.4597 6.88988 -8.91799
1854 1 25.76 -20.1738 -6.88501
313 1 26.7353 20.0738 -8.41976
771 1 12.3263 -20.5105 18.3852
389 1 13.3682 -9.24639 6.1164
1706 1 -13.4841 6.66773 5.96397
224 1 14.2047 8.18913 19.801
1675 1 15.7043 8.92196 5.72735
1964 1 1.45734 8.98203 20.2737
1110 1 30.3307 -5.41903 17.7203
671 1 30.2047 8.53461 5.02787
1292 1 17.6365 8.56986 31.6862
684 1 3.8957 22.1247 -8.20975
1186 1 4.52957 7.8652 6.10608
877 1 17.0605 -6.19399 16.9565
175 1 3.61761 -4.35283 4.99938
657 1 5.74795 23.0403 5.1108
1767 1 7.31741 8.29166 31.5814
1075 1 22.4074 8.58473 5.6885
1632 1 35.582 -18.7094 4.6157
519 1 6.32205 -5.06773 18.4689
992 1 10.2749 7.72936 18.2518
1594 1 10.5095 -4.59333 5.69759
1805 1 25.9553 8.17613 5.14614
1299 1 -2.20137 7.52128 19.0599
400 1 0.375334 8.4955 18.0739
1648 1 -1.55786 9.54786 5.12152
1222 1 1.47048 -5.39791 18.014
235 1 0.113684 22.7237 -8.24676
1259 1 0.97165 7.30575 17.9314
813 1 -10.4159 -4.46254 17.3611
1043 1 0.437864 -2.64884 19.2898
918 1 0.34142 9.1163 -6.96724
126 1 13.9523 -4.1605 18.2216
1341 1 16.0827 10.6721 4.73649
2005 1 3.73731 10.4626 -8.40002
11 1 -9.32317 -2.77689 4.425
1411 1 -8.31763 -3.59415 17.7537
1936 1 -6.95281 9.65892 32.4476
1237 1 6.36862 24.2032 19.3875
292 1 -4.70413 11.0128 19.2811
1184 1 22.4566 -4.04999 -6.91415
560 1 9.39798 24.2601 17.9754
1667 1 -3.98527 23.6618 18.7802
683 1 24.3339 9.33519 4.70808
975 1 -3.30864 -2.65395 33.1429
1868 1 -0.730837 9.0563 6.34003
1840 1 -2.75294 -3.01279 -8.8849
1106 1 -14.342 9.03328 4.63774
1754 1 27.053 23.6564 19.3605
1046 1 0.953392 -3.43219 4.72314
1073 1 14.8776 -2.30917 -7.2333
2020 1 -0.0810718 11.227 18.3822
1820 1 1.42418 -1.2952 18.0607
330 1 15.3139 -3.01169 5.75147
579 1 29.9059 11.6851 3.65492
1904 1 2.7337 -3.73636 19.3118
631 1 3.13846 11.8449 -8.73465
1093 1 4.8829 -1.67334 16.8029
1995 1 -8.63823 25.2446 4.02777
1843 1 18.7943 -1.51272 5.20633
637 1 -5.62598 -3.04208 4.75991
1238 1 7.94649 -1.03554 4.84495
1928 1 -3.56071 11.2743 4.68911
1647 1 7.84628 -2.04044 18.7252
1124 1 -2.75871 12.1117 31.1147
1952 1 9.14717 -3.11418 33.8408
750 1 9.66685 11.7815 5.45415
546 1 -2.79714 -1.81552 18.9666
1509 1 -2.02037 11.2276 -8.12447
1430 1 25.4662 -2.2128 -9.29632
1590 1 -0.923262 -1.61312 5.71101
117 1 -1.69028 -1.23546 -36.0805
1938 1 -1.58997 12.3312 21.5354
1376 1 0.397167 -0.343957 21.1916
1495 1 15.8093 13.1019 -9.13776
218 1 14.6563 12.9781 5.16845
360 1 -12.5672 12.4448 -7.51011
1328 1 1.10621 11.8495 5.3883
1182 1 30.3628 13.99 4.36316
1751 1 15.8816 12.4358 5.61997
1331 1 -9.47539 0.464931 5.17336
359 1 17.9915 -0.899635 -8.30519
578 1 5.41633 11.3936 5.75077
1223 1 3.9989 -1.76152 3.82702
165 1 -9.10545 12.5745 -9.30676
290 1 -6.12123 -1.42751 3.82687
1134 1 21.5639 -26.5037 4.49451
1589 1 8.84138 11.4622 -9.0446
888 1 35.8238 -14.9883 5.80781
1513 1 9.93829 13.6428 19.5006
1147 1 -16.213 -14.3366 18.2258
28 1 12.0225 0.777932 4.99912
1303 1 -2.41391 13.7803 -8.22531
864 1 13.5488 -0.481049 -9.98918
1924 1 0.39307 12.3646 4.578
1910 1 39.7324 -0.668291 20.1309
1812 1 14.8731 -12.8327 21.5248
32 1 14.5653 1.72549 -5.0594
1601 1 2.39518 -13.4408 6.61607
621 1 1.75407 2.12492 7.35567
1294 1 -9.32167 0.223729 -7.31942
99 1 2.50096 -12.5622 -33.6187
75 1 -9.00689 0.0988903 -6.11749
886 1 5.29732 13.0582 -7.89185
372 1 -7.36869 -0.179188 -7.50176
1131 1 7.50876 -0.932944 -7.83932
504 1 49.1989 13.389 6.42011
734 1 -3.8734 0.598511 -6.61354
1229 1 9.40462 -0.359324 6.88157
844 1 7.90204 0.765727 6.39921
491 1 -3.84604 15.0955 -21.1152
944 1 -3.27701 14.5068 5.52645
403 1 -3.30787 14.8853 7.8593
1955 1 -2.12307 2.12018 19.6795
583 1 -2.21132 0.994389 5.97244
1603 1 -4.14168 29.2781 35.0356
308 1 12.0926 0.348799 6.77309
900 1 -1.11611 -10.7571 7.30869
1249 1 13.025 1.21023 20.6934
592 1 -13.1824 14.5114 -6.56902
1318 1 0.381998 -25.2872 -6.05378
192 1 14.8341 16.4845 8.0432
116 1 14.0016 28.9432 6.49878
1483 1 1.06779 28.1822 33.4068
1573 1 15.1612 -24.0999 -7.72751
1639 1 32.2479 2.12315 20.1185
1207 1 3.35814 -13.0687 35.266
817 1 4.09025 1.0592 6.82912
472 1 4.15431 1.329 5.80385
288 1 19.3785 -13.7118 7.52125
358 1 5.85426 1.64811 19.9096
170 1 18.8584 1.19278 -6.82248
354 1 -6.85814 15.0458 20.5455
1104 1 19.6247 2.16894 -6.53492
904 1 -6.77268 2.33108 6.57108
427 1 -6.22491 -12.2066 21.615
658 1 7.09178 3.45105 -7.62189
319 1 21.2155 -13.0659 -19.9754
523 1 22.111 16.9307 33.8647
878 1 23.4893 17.5968 21.3055
1808 1 9.59312 -23.9526 20.3196
1685 1 8.42624 15.8247 -7.4375
591 1 9.97888 -10.9009 7.39987
1539 1 13.3002 2.32239 -6.74303
1072 1 -0.0786242 3.22344 7.24476
216 1 14.4932 18.2187 5.99001
919 1 1.8172 -9.28009 7.6606
134 1 0.916187 29.9024 -20.5541
1884 1 16.1426 3.86977 19.3287
1556 1 15.6633 2.44079 20.0251
791 1 13.8813 18.0968 20.7441