ITEM: TIMESTEP
245000
ITEM: NUMBER OF ATOMS
2048
ITEM: BOX BOUNDS pp pp pp
0.0000000000000000e+00 1.3679807573413575e+01
0.0000000000000000e+00 1.3679807573413575e+01
0.0000000000000000e+00 1.3679807573413575e+01
ITEM: ATOMS id type xu yu zu
247 1 0.712752 -13.9595 15.4475
121 1 0.226993 28.8284 0.871844
770 1 -12.8396 -12.9378 -0.265539
1454 1 12.5499 28.4461 0.828096
112 1 4.24438 13.5305 13.4076
1543 1 -9.99982 -11.3972 -0.380968
342 1 15.6876 -12.9717 15.3479
1324 1 -11.3059 28.4707 -0.362915
1795 1 5.71454 0.775647 28.2918
1342 1 17.4452 -12.5685 26.9147
787 1 2.95489 -13.513 -0.80432
598 1 17.5524 -0.832635 0.616184
251 1 34.0852 0.72658 1.0801
317 1 4.69637 -11.9892 -0.00791879
1888 1 7.70894 13.8322 15.2795
1387 1 -7.43965 0.800423 15.6374
1405 1 21.0762 28.9619 -12.5461
493 1 7.72566 27.9544 0.633222
1545 1 9.69296 14.8357 14.9855
1835 1 -2.91728 0.513895 0.478061
1871 1 11.3632 2.26481 14.8566
1111 1 24.5379 -26.0067 1.13511
1169 1 25.7968 -13.1232 1.80178
147 1 51.9952 13.9751 15.5426
168 1 11.9976 -0.419079 1.62446
255 1 12.1297 1.02649 -0.525252
906 1 -2.52333 30.2982 13.9646
1443 1 12.8416 29.1708 27.1886
927 1 -11.898 1.89283 14.9496
1017 1 13.5123 29.8725 -13.2177
352 1 27.2611 17.0146 -15.7559
1484 1 -1.53765 2.4437 0.368593
5 1 3.90633 0.79827 -13.0445
812 1 -11.1902 -11.5295 16.0993
1149 1 3.23137 3.04162 0.342822
1883 1 4.30772 3.06612 13.7794
1957 1 5.72153 1.60756 1.49602
1267 1 18.3469 15.5822 -11.6479
656 1 19.5957 17.0255 28.8224
840 1 19.7406 15.9794 -0.0313648
1844 1 21.8202 -10.9313 13.4568
1920 1 34.0824 28.9869 29.4414
521 1 20.7791 2.36726 -14.4939
1402 1 21.1292 -12.7701 15.8931
1039 1 -6.05735 16.5538 15.2071
1153 1 24.5435 -11.8644 -10.6533
1523 1 -4.60194 3.44038 13.708
1730 1 -16.939 2.41458 -1.36628
615 1 10.6717 -10.6022 15.1016
834 1 -0.0354804 -11.8446 12.589
482 1 -0.690974 17.043 0.751599
528 1 12.2219 30.6229 13.1028
985 1 27.147 -10.8177 13.0678
194 1 -12.8766 -10.1193 28.4139
769 1 0.850091 -24.868 1.04911
1508 1 -12.5042 19.3548 0.754846
1564 1 15.6823 2.91766 15.6416
17 1 -10.7282 -9.25915 27.842
1404 1 2.16027 -22.0465 14.4792
119 1 4.86875 31.0793 14.6266
1478 1 4.89722 18.4868 27.5379
454 1 -9.82516 31.2198 1.05866
536 1 5.62025 19.8087 16.2889
1288 1 4.8586 18.9986 14.8832
800 1 5.48123 -9.63958 -13.81
82 1 6.44758 4.09583 0.413418
1732 1 -5.54598 44.824 2.00844
1114 1 -5.44616 -10.0966 0.932261
1131 1 7.38708 4.11898 -12.8297
1048 1 9.86914 3.45465 14.3263
1441 1 10.4505 -23.126 1.8058
845 1 -3.72862 3.48458 -11.3851
1222 1 -3.26235 -8.73007 14.6047
1135 1 -2.60135 3.92133 14.4884
828 1 -1.68049 4.83404 0.390867
1628 1 -1.33942 2.89428 3.82335
665 1 27.1987 4.26937 14.7705
573 1 26.8199 -9.75223 13.4641
421 1 -0.481895 6.20256 1.73891
1837 1 0.477232 -7.99818 29.5306
409 1 41.9406 -7.23009 -12.1935
182 1 14.3588 -22.5522 -26.0555
307 1 3.46581 6.62128 13.7208
1089 1 16.2512 3.95687 28.5967
31 1 17.0329 -7.01053 1.00858
467 1 5.59022 6.898 -13.2953
1457 1 5.31185 33.2706 14.0569
1196 1 -9.52791 19.1916 -13.4
8 1 -7.85029 5.06087 14.3017
799 1 -5.55803 4.65918 1.19767
1866 1 7.40397 -21.7536 28.5725
1500 1 6.588 -8.88547 28.5511
1877 1 -4.34829 31.9993 28.1307
1561 1 -3.01979 20.3962 14.3782
1354 1 10.0342 6.47214 15.4417
4 1 -14.8422 19.4576 -12.6794
1857 1 -1.57729 -9.87114 14.2019
1311 1 11.2228 -21.233 29.4135
2033 1 13.7598 19.6039 0.877573
266 1 -0.0263552 -8.66443 13.9118
1752 1 26.2382 6.72278 0.293878
326 1 -13.1558 9.05095 0.995328
410 1 0.445692 20.7247 14.5377
1192 1 26.5531 7.17008 14.9307
1635 1 15.6571 6.32283 14.7109
699 1 14.9208 -6.84858 13.8707
641 1 0.832881 7.95089 14.2548
1030 1 1.7575 7.51238 0.968789
438 1 30.9263 7.5978 0.823308
1700 1 4.39369 -18.8685 27.9072
1658 1 2.42625 -6.51197 13.9054
1919 1 32.9952 -20.2598 15.0181
1512 1 4.36026 -6.62858 -0.343409
125 1 6.55789 7.61759 -12.2978
1901 1 6.22884 6.25324 28.5319
1212 1 -6.0161 -20.465 0.422188
248 1 21.3159 21.1747 -0.526572
138 1 8.46155 6.3688 -13.6971
896 1 9.4543 -7.21737 0.358672
1705 1 7.38424 19.7397 13.4459
968 1 9.51639 8.21588 -13.6744
1838 1 11.2571 7.01215 2.6814
1982 1 25.3213 6.8999 1.17218
509 1 27.195 21.7771 -12.573
1319 1 -1.41467 6.66382 1.99059
314 1 13.3735 6.70253 -27.7634
1668 1 -12.1915 21.217 13.0729
124 1 14.2041 9.83001 -11.8853
919 1 2.37573 -6.65898 12.6976
260 1 -11.2323 -5.19749 -0.668424
1296 1 1.5213 8.38862 15.0033
132 1 18.5777 -4.36921 15.8464
1223 1 2.75217 -4.37938 1.51652
180 1 4.51755 -17.9621 -12.4765
490 1 -8.81115 21.2541 -26.6336
1983 1 20.7404 8.34613 0.10021
1216 1 5.85353 -6.57213 2.26535
1673 1 -7.55712 -4.83705 13.5759
593 1 6.5508 -5.08116 0.92383
1304 1 8.71068 -20.2003 15.7928
187 1 9.66117 -6.05953 -1.33478
1925 1 22.5135 35.597 1.1476
137 1 22.8295 -4.36645 0.26314
883 1 10.0701 -4.23458 14.6216
1881 1 12.2297 21.4485 14.2467
1692 1 24.8523 35.982 15.9648
1815 1 26.1693 -4.92031 16.1186
1511 1 11.1643 36.7407 -12.5911
612 1 -14.3321 10.1566 1.41797
701 1 11.864 -5.94913 15.7729
863 1 12.3596 23.4322 14.2999
1820 1 -0.0865549 -5.15096 13.5877
1475 1 -12.0719 9.36027 1.05628
563 1 2.43003 -17.6182 0.428107
966 1 16.7357 12.1816 -12.9173
1349 1 -10.8509 24.7581 13.2085
1642 1 16.4283 11.1588 -13.152
1914 1 3.99099 10.4926 1.08705
576 1 15.7211 8.34096 -13.3218
871 1 2.75359 10.346 1.23441
1647 1 5.74908 -2.85548 13.8152
100 1 3.35669 -3.32924 0.223023
922 1 20.611 -17.5085 1.30239
447 1 19.5812 -4.34215 1.55302
130 1 5.38847 11.0066 -11.1905
158 1 -7.32036 -3.70807 0.503207
988 1 -17.4048 -5.17934 0.929292
1300 1 -6.99878 -2.64868 28.1734
1584 1 22.4824 10.1134 -1.33942
1407 1 -2.78337 11.1168 41.7522
434 1 8.87613 -2.60348 13.8209
562 1 10.4833 -2.8034 -0.940178
537 1 10.7154 10.1182 -0.17008
1608 1 -15.8508 -16.5385 13.2888
1010 1 -14.4488 -16.6553 13.7464
895 1 27.1362 -3.96284 -13.498
655 1 14.2854 11.217 -13.6713
1177 1 15.4737 -3.14122 13.9212
652 1 2.25145 11.1188 -11.6586
1144 1 -9.95053 -1.99784 0.209128
570 1 31.4271 11.4747 1.1164
299 1 3.73953 -3.79763 -27.9424
1893 1 4.94829 10.8862 14.7305
1053 1 19.1753 -1.65667 13.531
961 1 -5.65052 38.4408 14.903
1613 1 21.6107 26.6352 28.6485
1971 1 -4.31986 10.1125 -11.9178
965 1 -5.41029 -4.22109 1.61836
764 1 -4.40727 24.2748 13.1089
836 1 10.0763 11.1371 -0.0421356
818 1 24.1092 -1.36919 -0.844523
1981 1 11.6919 11.9766 14.6144
873 1 11.2697 25.5025 -13.8133
864 1 12.1824 -2.33537 -13.4572
1347 1 -16.6317 12.1399 15.3466
885 1 14.3995 26.9255 -13.0896
1834 1 1.47197 -14.8076 14.8082
824 1 15.9656 -0.0855978 0.980298
1663 1 15.286 -1.75776 -14.1235
1503 1 30.6279 27.3002 14.8551
659 1 2.97915 27.7443 0.233487
1777 1 15.6595 26.5775 13.6746
535 1 -8.71263 25.8026 -12.8085
766 1 2.66384 -1.24173 -1.26204
715 1 3.64129 12.6258 1.60687
505 1 31.516 -14.838 26.9806
102 1 5.86771 26.348 -26.5084
1980 1 -6.64336 12.9291 14.5392
511 1 8.67003 -13.7756 -11.6945
1456 1 9.90619 12.7125 14.8597
1488 1 -4.96867 -13.0811 -12.6896
642 1 21.6439 -1.60956 -13.3278
1124 1 -4.83733 13.2876 28.1667
916 1 -19.4765 26.7878 13.8624
637 1 -4.40587 -1.42596 -0.0494133
644 1 -3.82796 13.2494 14.0314
1463 1 11.8015 27.7903 14.0555
98 1 -3.30725 -1.54856 0.239375
857 1 10.9311 -14.0705 0.0334926
1499 1 27.5218 0.0133661 -0.255211
1661 1 -0.458719 13.058 14.2822
231 1 1.28267 29.0998 15.8655
1599 1 40.3721 15.1023 29.0611
241 1 -10.3914 13.5781 16.8478
242 1 15.6363 0.270048 -10.9358
911 1 17.634 -12.9497 29.3312
249 1 4.4482 13.5813 15.2144
1894 1 -10.4898 0.838616 16.9568
19 1 4.92012 13.0629 0.442695
358 1 5.6815 1.64651 16.2172
1687 1 -7.32287 2.48929 42.0454
538 1 7.98843 28.4615 3.92442
1382 1 7.00373 0.110967 -10.915
1644 1 5.62855 -0.0126603 1.66075
1589 1 8.67127 15.7609 -11.6308
118 1 22.0663 -25.8317 28.4827
488 1 -5.96581 15.7229 2.15811
1244 1 8.42881 29.0832 3.07096
623 1 22.4588 -14.4599 4.18404
464 1 -1.92111 15.5047 15.8167
211 1 -3.33039 15.0804 -11.4201
1160 1 -1.35765 1.19056 16.3196
1058 1 -17.3894 12.9257 15.9647
1073 1 11.134 0.714296 -10.8742
1810 1 0.988051 0.455409 14.5327
304 1 -14.5914 14.0398 16.7478
1202 1 13.9674 2.06173 15.7004
1579 1 16.6764 15.4578 0.222854
1538 1 -11.1206 14.7731 29.9118
1424 1 45.1285 1.30195 2.76646
2012 1 32.1124 1.33775 14.8144
1082 1 5.43336 -11.2243 15.5155
1103 1 18.8857 0.497903 3.02377
870 1 -7.34844 -10.8348 3.35044
1467 1 34.0471 2.72588 15.6136
1240 1 6.6725 -11.7895 3.75969
129 1 22.1008 1.05304 2.03967
790 1 -5.01865 15.567 4.1517
1147 1 -18.7991 -10.8012 17.329
1617 1 7.36214 2.48678 16.7333
1006 1 -31.3746 29.5822 28.9524
552 1 -3.89654 1.15826 3.22783
1851 1 -0.866493 2.45689 1.36781
1329 1 -0.838738 2.17975 -11.2563
1095 1 11.9539 2.66241 2.66559
127 1 13.6438 0.929966 16.4963
1368 1 27.3361 -10.5751 29.1078
67 1 2.83651 1.37496 15.0249
589 1 1.59385 16.3024 -10.6717
1989 1 -26.3957 -10.8195 2.06292
1703 1 -12.7558 4.78596 2.45786
1059 1 2.91677 2.56419 14.8935
1332 1 14.8062 3.79012 16.5228
394 1 1.6109 3.97207 15.3607
401 1 17.7435 16.5734 1.56268
93 1 4.27537 16.4908 -11.1653
57 1 -9.08215 4.43011 1.74388
1375 1 5.16724 -23.3125 -10.6972
33 1 -10.6294 3.2402 -11.5203
139 1 4.94519 17.1766 -11.6118
2048 1 5.98148 17.2839 16.2212
1962 1 4.31707 5.99855 2.7456
1152 1 20.846 17.4177 15.4792
1423 1 -19.2036 3.71883 3.282
1436 1 22.5836 4.03667 29.9095
947 1 11.3599 4.90188 15.076
867 1 -5.39764 2.97416 16.3598
428 1 12.3136 30.778 15.2896
1634 1 -2.42425 17.2678 29.4699
191 1 10.6496 2.36422 -11.5394
827 1 -0.487414 4.11345 15.8169
9 1 26.5 17.0173 2.6676
843 1 67.1236 4.53022 15.1159
451 1 -0.0937945 -6.70173 2.15594
1021 1 27.8383 31.3825 -11.7608
515 1 -0.409139 5.07158 16.1417
457 1 -12.2438 34.4624 2.63593
1697 1 -12.1438 6.10263 2.12831
1675 1 14.932 4.69069 3.43681
1492 1 31.7726 -20.8401 14.3418
534 1 -9.54983 -7.66313 -12.0373
891 1 17.3381 2.00177 1.86798
466 1 3.95788 18.7188 2.46601
1374 1 -24.3377 -8.84414 15.3329
811 1 20.1595 -21.6287 3.22225
1474 1 18.7768 33.6339 1.71559
1458 1 4.84787 20.933 15.7973
170 1 21.3718 5.73704 -10.5121
1712 1 -7.79688 -8.14609 1.6558
1180 1 21.669 4.87168 2.30243
1816 1 19.7351 4.5152 2.22604
1221 1 20.4613 5.32578 15.9158
705 1 11.0217 4.77902 16.0855
1650 1 9.31504 5.01422 15.525
205 1 -17.6938 5.69307 1.05255
1691 1 -3.35775 5.33288 1.90261
179 1 9.5975 6.02876 2.4996
1013 1 23.3605 31.991 2.75496
1527 1 -1.42634 5.56388 2.00401
1562 1 14.1502 -21.9479 30.5833
1609 1 -0.687158 5.9499 2.8339
684 1 -0.788666 21.4107 -11.6119
22 1 -10.9074 -21.4175 15.2395
1015 1 2.25305 20.2245 16.4608
755 1 2.53812 -6.49983 1.76207
131 1 3.81283 -6.8041 -25.076
631 1 4.23548 7.99858 -11.9786
594 1 5.896 -6.95894 30.8788
924 1 18.3041 -6.70703 16.8228
520 1 -7.07333 -34.6314 2.51422
267 1 -6.42622 -7.12876 1.30552
1672 1 -5.87657 6.58172 16.1833
1548 1 -19.1752 -33.0963 -9.71132
1482 1 8.21634 5.77123 1.77989
1284 1 -4.81363 6.33414 1.28109
1299 1 -4.87469 5.55094 14.2772
915 1 9.77599 20.9061 16.4031
2040 1 10.6803 -7.99944 2.81133
1892 1 10.3433 7.4444 15.4452
1688 1 11.7352 7.99928 16.7565
1007 1 -1.59233 5.9918 -9.92863
1179 1 11.1975 -6.75802 -9.88579
76 1 13.3622 18.8689 1.50933
148 1 0.842354 21.2496 29.1121
35 1 14.7546 -33.0676 3.3403
2006 1 14.1722 20.2281 16.636
66 1 16.176 -32.8693 1.34047
539 1 3.25234 19.6522 -11.0055
1784 1 5.96861 21.8538 15.5549
1281 1 -9.77741 -18.4324 1.96714
1431 1 7.39746 21.3906 15.735
1531 1 -8.62922 8.25126 2.41155
929 1 -8.12658 7.72037 3.30093
605 1 8.7911 20.8681 14.3777
217 1 8.98623 22.4676 3.44267
711 1 -5.7867 7.55502 14.8974
1921 1 -19.3075 7.58927 16.6957
556 1 8.21243 8.45248 2.07928
495 1 23.6718 8.96908 2.94659
1842 1 9.72046 7.54927 14.5588
682 1 -2.87144 -3.38164 1.54973
301 1 23.1459 -3.7057 17.3086
485 1 9.11609 -5.74533 16.1309
1960 1 -3.43119 22.1612 15.7313
1450 1 11.7309 9.41773 2.1364
1862 1 24.8314 36.5915 16.9577
1127 1 -2.91041 7.85873 2.87025
1583 1 -1.56842 36.5361 30.7798
1806 1 13.5497 -4.94283 15.7155
350 1 40.8023 -6.48951 -10.2687
278 1 1.47393 -16.7933 1.65645
923 1 -12.6656 9.73724 27.5098
1799 1 -0.332703 -17.5127 2.61313
1077 1 16.4362 -17.1049 2.44056
402 1 31.0951 10.0402 15.8032
397 1 2.79658 8.83857 16.2189
2016 1 15.4542 8.16415 29.6087
34 1 -6.77721 8.93184 15.7163
1167 1 -6.1441 8.71809 14.7003
1203 1 3.92204 -4.22262 3.13353
595 1 33.0797 9.95486 16.3257
1110 1 31.4417 -5.54204 16.5386
547 1 -6.04255 -3.10543 2.91267
238 1 9.40274 -4.72136 15.3665
386 1 -5.05332 -18.6689 18.1601
611 1 -5.88151 9.38044 2.51504
1793 1 -5.47266 11.2893 29.5928
1260 1 -5.36478 24.0262 15.7962
688 1 11.2371 -3.216 2.57406
1987 1 -17.9389 -3.14117 16.3944
1214 1 35.2599 38.9011 -10.3721
1528 1 11.9364 23.9958 15.3236
2005 1 -2.49252 11.8107 -11.1696
1684 1 9.19802 11.555 16.3792
553 1 11.6106 -16.9029 0.618191
1737 1 -16.0796 -2.36912 1.65989
376 1 25.7117 12.2794 29.523
749 1 0.577991 -3.16932 14.5071
1338 1 2.26097 -1.79948 15.0652
1970 1 -39.2929 -0.544694 29.279
1822 1 -12.6119 11.3937 14.7223
1279 1 -9.49283 39.1449 16.1255
1841 1 28.867 -4.29008 -11.4552
70 1 1.03293 11.424 3.21719
1000 1 1.52334 25.8475 16.4844
230 1 14.9498 11.5071 15.7113
695 1 18.5497 26.1759 2.00226
1004 1 4.9417 8.88149 16.9439
1604 1 3.3797 24.4618 16.6763
406 1 18.4936 -3.42757 -11.8929
1585 1 20.1539 11.2614 29.6584
1927 1 -6.40378 -1.48653 2.43757
798 1 7.42277 -1.77618 -12.386
987 1 9.04586 11.8909 -12.8511
1757 1 -6.54161 -2.91644 -11.933
1660 1 -4.69507 24.7815 -12.0923
1590 1 -5.07051 -1.23615 1.96238
2 1 -3.79237 25.0722 14.6156
1235 1 10.2616 -2.481 2.22473
1066 1 25.4181 -13.8033 2.95643
1977 1 11.4675 10.0981 30.9554
196 1 -14.5939 -0.792581 -10.7139
1766 1 14.2739 12.4505 15.0722
723 1 1.31084 -0.502357 -10.5544
1019 1 16.4096 -0.922816 15.168
2043 1 14.6479 14.3944 16.471
1277 1 2.52501 -0.944661 16.1548
1388 1 -23.7863 -1.0895 16.5961
49 1 4.15536 0.53358 3.3716
461 1 -9.40088 13.4708 16.2599
903 1 -8.76401 11.8782 3.56883
1917 1 6.64643 -0.223703 15.5352
1134 1 19.5045 -29.5541 1.19706
874 1 33.3334 12.5843 -11.6293
1741 1 7.81106 -0.460286 29.8498
1915 1 21.7227 0.540084 2.91861
650 1 -4.79008 -0.711474 2.84095
1802 1 9.69893 13.8438 17.5181
1133 1 -17.7511 -13.5721 1.37639
1953 1 -4.06122 11.9317 1.82976
1451 1 10.9835 -0.467973 1.17492
774 1 26.9222 0.136924 1.95849
174 1 12.9094 26.4214 15.2459
865 1 -0.280823 11.2057 14.6064
1947 1 10.1404 -26.9777 2.68343
368 1 13.5961 14.2482 0.899986
959 1 -0.00406242 26.5804 2.3122
1715 1 0.456156 -12.8259 1.73464
289 1 27.5351 -13.7823 -23.9699
333 1 14.9811 0.0953436 4.18267
1935 1 13.7408 29.0457 17.6281
39 1 15.2717 -1.25057 -9.81512
1991 1 -10.7841 27.3756 2.15121
1775 1 16.8724 26.6368 31.5808
1194 1 3.74738 28.9191 17.5762
596 1 -9.27216 13.4932 4.63159
161 1 -7.66722 13.5229 16.4427
236 1 5.02229 0.798245 2.03447
1418 1 -7.1128 13.7377 17.3597
732 1 20.7183 14.8773 18.1336
1801 1 7.72207 15.8219 3.93139
1064 1 7.89584 1.46931 4.93483
850 1 -6.41378 13.7351 32.0998
681 1 10.8449 -12.289 4.15093
1829 1 8.76916 1.04479 -8.30878
1638 1 23.2908 28.4335 31.9848
26 1 11.469 1.97736 -8.99294
557 1 10.5104 0.367515 -8.50754
1626 1 -1.85807 -12.9859 17.3927
1539 1 12.9817 0.93338 -9.81044
1389 1 -14.3164 13.4275 -9.62259
884 1 14.4742 1.94642 4.52186
1428 1 13.8534 14.9894 6.38427
776 1 1.5459 14.972 17.0443
1886 1 16.4076 29.0712 17.0981
1516 1 15.5389 29.6924 4.21819
1361 1 2.25102 -14.1302 3.6699
1576 1 2.25595 0.648389 17.4474
1109 1 32.1376 15.4138 3.36426
65 1 5.26091 16.6075 16.5784
1184 1 19.2857 2.02496 -9.7822
996 1 -7.80249 16.6827 4.43471
2021 1 -6.28569 15.1451 16.7877
512 1 19.3373 15.3367 4.87406
1060 1 -19.4447 2.99053 -8.32216
2035 1 -17.4659 2.21385 2.7925
28 1 10.8732 1.04653 6.09433
1978 1 -3.21539 2.85148 16.9593
99 1 -1.66599 -11.8005 -35.4685
1446 1 -14.3349 -11.2572 4.78397
1985 1 -15.7194 1.93551 17.4071
1043 1 0.806158 1.96099 16.906
634 1 13.4882 0.764185 4.79194
71 1 -12.8079 16.6522 3.65669
38 1 0.0295359 3.86911 -9.3618
351 1 16.7607 3.84821 3.66117
877 1 16.2737 -10.7524 16.8495
679 1 3.8881 15.6202 -12.8602
540 1 3.46016 2.21452 2.87771
1529 1 -9.56659 3.87242 3.54681
950 1 7.10556 29.6758 -22.5266
1061 1 4.58923 -8.71885 3.23343
1104 1 20.4316 4.24146 -9.22821
86 1 46.1601 -8.41786 15.9083
178 1 20.9397 3.09263 -9.58869
1339 1 22.0552 -23.3572 19.666
506 1 8.1851 17.3916 -9.34055
1929 1 -6.67101 30.9801 3.11596
1764 1 -3.50399 15.8366 -23.2822
1062 1 -4.45443 3.72107 17.5038
146 1 10.4011 16.8895 4.42309
356 1 24.1846 17.7237 16.6026
726 1 11.2114 16.5408 -9.71305
1786 1 13.9961 15.8807 19.1035
1950 1 39.9685 -11.8056 30.8367
1049 1 -13.9093 -24.5788 3.91988
1926 1 0.0305893 2.74244 30.1688
752 1 -0.82872 3.43905 -8.71849
622 1 -1.06661 17.7498 3.41447
1648 1 -0.861812 5.1393 3.47512
1973 1 12.6459 18.4005 18.7018
830 1 13.5532 5.10584 17.9627
1964 1 1.00844 4.10622 18.0864
244 1 -25.4228 5.01864 2.22316
1233 1 29.7416 -9.15953 -10.2361
1565 1 4.22145 4.38108 45.5659
722 1 17.8248 3.96159 16.2004
1738 1 3.20841 -9.17763 16.5718
706 1 3.90158 18.6776 -12.5366
680 1 -7.63652 -7.18743 18.1923
2034 1 5.8859 32.191 3.34328
1008 1 21.2625 5.86342 5.02272
1410 1 7.03042 6.42494 4.2574
1227 1 -20.2693 4.81359 16.7442
1489 1 22.163 -8.74181 5.74167
1321 1 -6.54497 19.1329 17.8507
1532 1 7.96169 4.72962 31.8641
588 1 -4.98098 5.56642 2.89659
295 1 -2.24061 17.6422 3.38321
844 1 11.8512 4.8233 4.00351
53 1 27.4904 4.37021 16.8945
435 1 -1.43967 4.59174 2.43195
704 1 12.3206 6.98228 3.17481
574 1 0.859614 5.66421 -9.58499
788 1 15.2425 -7.52393 3.41424
1123 1 1.8736 6.04733 -9.21576
367 1 15.6836 20.9602 3.90122
52 1 16.0725 5.60815 3.06426
1958 1 -8.98583 21.2781 -9.60352
237 1 -10.8718 -7.1639 -10.0623
69 1 6.35712 -6.16335 -9.50489
1536 1 3.91661 19.8392 -9.97744
162 1 5.49971 21.1161 -22.4696
796 1 -6.69204 -20.2759 3.28468
1258 1 -20.69 22.1866 6.0867
1063 1 21.7904 4.74615 -10.3209
894 1 9.16056 7.83796 4.43817
1018 1 8.38258 33.0636 3.98078
136 1 22.6277 6.77438 -10.6773
525 1 -3.89198 19.0657 3.48479
1259 1 -2.90933 8.74949 17.803
1796 1 -15.7447 5.27724 3.11985
51 1 -16.5275 19.6388 3.74174
1171 1 10.9863 7.72824 4.34984
3 1 -0.892668 -7.8614 4.73237
1232 1 14.2956 20.8036 17.5932
489 1 0.514652 9.09593 2.95068
1762 1 0.179142 7.95086 -10.9592
222 1 1.9315 8.79393 3.32901
1875 1 16.8727 -19.542 2.12923
262 1 2.31565 7.77592 -10.5992
2038 1 -11.7008 8.22331 31.5078
1846 1 -7.68642 22.5085 16.291
2009 1 -23.7827 7.31554 17.4788
284 1 17.7641 -18.7 17.548
1767 1 5.91645 7.46892 33.2652
504 1 46.0854 8.74951 4.25079
81 1 20.1952 -5.79826 2.61776
1336 1 -6.64443 8.35806 17.5157
2047 1 21.5999 22.456 30.8833
1517 1 20.9548 9.20668 18.1053
252 1 9.1718 7.82601 3.41335
1924 1 -5.02534 7.8413 5.3434
1897 1 8.0903 -17.5789 -21.3664
779 1 -3.37098 -3.76716 -10.7542
527 1 23.2337 -5.04927 19.258
638 1 37.2401 -7.19865 -10.2486
1102 1 11.3113 9.83311 18.3988
1747 1 -3.85741 22.1197 4.02679
1787 1 -3.59289 7.51683 -8.78377
771 1 12.2506 -16.2524 15.919
429 1 26.8323 -6.86348 4.53293
566 1 13.6323 -5.70003 -9.7055
1204 1 13.7136 -2.84816 15.8065
27 1 0.845999 -5.11395 -11.6073
753 1 -12.754 22.4117 3.94137
809 1 -25.3636 -18.0539 -9.12814
1341 1 16.5215 9.33865 3.47298
964 1 2.89527 9.0564 4.37909
1944 1 16.7399 8.18864 -9.92971
1654 1 4.55134 -3.28015 2.96947
1553 1 -6.59946 -4.41913 17.0188
1513 1 6.25027 9.52909 17.5769
1550 1 35.2099 9.84077 4.89328
944 1 -6.894 9.96371 2.31278
87 1 -6.96189 10.9637 16.9002
1268 1 7.23435 22.9237 5.49563
338 1 7.16452 10.1464 17.4569
1276 1 -5.38922 -17.5724 -10.3551
805 1 -4.86105 23.4128 -9.1048
10 1 9.19755 -4.10539 -10.9763
1106 1 -15.0578 10.1227 2.74666
374 1 10.2897 9.79814 4.27502
1942 1 9.7789 24.5186 4.16204
1940 1 13.7375 10.2523 17.3833
1422 1 0.860509 10.3668 16.2123
1803 1 12.3264 -2.55266 14.8733
144 1 -25.9878 9.6183 3.34866
101 1 1.76601 10.6363 -10.7106
390 1 1.19061 -3.22552 3.9333
868 1 2.81513 11.2632 31.2256
1206 1 2.42193 -2.106 30.2977
609 1 2.23522 -3.40673 -23.4939
1814 1 -10.3534 11.0001 15.6051
703 1 5.76489 -1.64734 4.44877
1156 1 -8.9693 38.9879 -8.91315
1555 1 3.44724 -3.50564 3.90489
413 1 18.123 10.7969 4.12411
1351 1 -21.6039 11.9197 16.701
340 1 -7.82498 -0.906658 3.55599
597 1 6.46413 11.894 3.73371
1558 1 21.4258 -1.10994 17.233
1333 1 10.638 -0.791406 18.2704
546 1 -4.92319 -1.62157 17.2924
24 1 -3.55616 -1.52736 3.03141
953 1 11.6363 -1.24847 4.64567
998 1 -16.9967 10.9353 3.28206
1961 1 9.86249 -1.49162 17.7517
888 1 37.6595 -14.2584 3.39307
582 1 -29.8902 -1.99717 -8.55626
683 1 25.3411 12.6898 3.38823
1594 1 11.6008 -2.5189 3.19509
1993 1 -14.1475 24.8255 4.29508
11 1 -15.8384 -2.77481 4.28001
1185 1 -14.8774 0.555911 -8.89466
113 1 13.8844 25.6145 3.68412
1046 1 -0.230812 -1.87071 1.78357
1170 1 16.3962 -1.41976 3.55737
1736 1 -1.00425 26.1944 18.1227
1491 1 14.7705 11.5904 31.5765
1843 1 18.7668 -0.703064 2.90945
816 1 17.5753 25.2859 3.63213
107 1 18.0418 -0.739248 3.67008
208 1 5.09574 -1.01688 4.81145
1931 1 -20.9796 14.5971 16.8029
921 1 6.00442 -0.627123 4.84981
1616 1 -5.67463 -0.10152 3.77187
1486 1 -6.84314 -0.951384 3.10078
432 1 21.539 12.7329 4.76268
1519 1 22.0466 -0.0057172 32.8313
1337 1 6.94655 -0.92742 4.22814
405 1 8.79722 14.3176 -10.0065
1453 1 -17.9765 27.4438 -8.82344
1928 1 -2.55253 12.8803 2.3485
1437 1 12.302 -15.7448 17.9598
1510 1 11.0473 27.4112 17.5565
1430 1 26.4361 -1.73982 -10.4643
859 1 11.4565 -12.9803 18.4138
334 1 -1.61068 -0.282441 4.34664
1662 1 -0.0289209 12.4121 4.59433
1620 1 -2.2278 -0.148181 5.51586
786 1 27.3657 -14.0182 18.5584
2011 1 14.3 28.2253 17.6617
1887 1 15.0544 0.0233604 5.72901
789 1 2.43251 -26.7035 4.87578
1724 1 14.749 12.9996 4.87906
1495 1 14.9174 14.9303 -7.344
75 1 -11.5201 0.656506 -7.66437
359 1 17.2436 0.413306 -9.42219
1969 1 5.24627 28.0196 18.7939
115 1 4.70475 15.6303 31.7143
200 1 -9.42849 13.9844 -7.92417
685 1 -7.35732 15.603 -7.95108
269 1 5.99102 0.899824 -9.6231
523 1 18.4912 14.5358 31.5524
1016 1 20.6853 15.0369 20.4396
945 1 19.7593 14.4432 -7.5458
1283 1 22.4413 2.16853 19.3249
1377 1 -5.75347 -12.1762 5.91033
933 1 8.22898 3.03202 6.29829
1955 1 -3.61987 0.612626 20.4263
453 1 -18.0125 27.21 -7.3567
1910 1 39.3005 0.802425 19.8398
491 1 -0.764945 14.9064 -21.7183
143 1 -2.16679 -25.775 -6.90127
621 1 -1.42642 -0.761906 5.33584
1861 1 12.8482 13.8562 19.608
1328 1 0.580865 12.809 3.92479
1155 1 1.75043 14.9739 -9.22021
347 1 28.273 14.7231 5.29349
1932 1 14.9909 -25.3463 19.221
1776 1 28.1604 16.6737 32.0365
1434 1 16.5372 2.65474 4.12953
1818 1 2.68668 15.4652 -9.03381
1079 1 3.89201 -24.5968 -9.89178
629 1 3.74497 2.27466 4.7097
354 1 -8.72713 16.6152 17.5385
133 1 -9.32649 16.9794 -9.0521
1345 1 4.88109 2.5487 19.0135
838 1 -7.72243 -9.13238 -8.40212
1649 1 20.2518 16.9884 32.455
1740 1 6.99652 1.06945 19.3176
1107 1 22.6105 -10.8566 18.357
1047 1 36.6959 3.39834 19.3243
1364 1 7.44831 3.01006 -6.78588
1190 1 23.4898 -11.2928 -8.39383
296 1 -4.35274 2.54161 -7.16132
997 1 -1.93489 43.7143 -7.35318
2004 1 -16.7939 2.05791 33.553
1646 1 10.6787 -12.1235 5.22416
1072 1 -0.56503 2.08499 6.51024
707 1 -0.0856406 3.17421 -6.97244
212 1 -0.482883 -9.83514 -7.83589
1485 1 1.64723 3.63845 3.70391
2025 1 1.95927 3.31214 -9.04589
96 1 2.40762 4.61579 19.2824
20 1 2.23093 3.86201 16.2537
1378 1 18.0855 -10.2414 34.295
564 1 -22.3267 3.9823 3.97975
1872 1 -8.07669 17.2357 18.9851
221 1 18.4859 17.8775 5.28219
47 1 3.2868 -10.222 -9.0359
728 1 7.44915 31.6614 5.36174
357 1 6.04384 -9.91016 3.74543
767 1 6.64976 5.06141 -7.70827
1911 1 34.5617 3.41962 19.655
1326 1 -17.8349 18.2895 19.4621
713 1 22.115 32.1555 -6.80732
835 1 -3.79892 -23.3535 -8.81585
21 1 -4.75911 -9.47773 -8.64959
1245 1 11.0863 4.44771 18.0484
862 1 -2.81292 2.65827 5.22817
60 1 26.686 2.84615 19.4124
469 1 -1.56546 31.109 4.36738
345 1 11.0703 17.4115 5.22589
784 1 12.4518 1.55298 -22.7406
1009 1 14.0738 17.9399 7.01572
1312 1 0.248138 4.71111 19.6201
981 1 28.1226 18.6671 -8.68607
1990 1 14.7257 17.8099 6.26664
1187 1 27.8983 -9.90476 5.4156
1439 1 15.7451 3.94459 20.0726
1371 1 1.58091 -9.63389 -8.32038
122 1 16.2728 19.6278 -21.6289
226 1 -11.9649 18.7064 -9.28347
1900 1 -12.4126 5.06249 19.7416
472 1 2.38761 4.17759 4.51351
1151 1 32.0591 5.66633 6.23616
1209 1 2.67421 5.30611 4.33375
616 1 4.18809 5.18329 -8.53324
1559 1 3.64218 5.051 17.5197
192 1 18.7746 19.7107 3.61734
1518 1 19.0871 33.8006 19.2718
134 1 5.152 32.3651 -22.8033
718 1 6.26159 18.9924 18.3947
1869 1 7.60903 19.2475 19.724
783 1 -5.76088 -20.5834 -10.0791
1534 1 -4.65648 18.4477 4.17208
315 1 21.9488 6.53951 5.08666
1420 1 23.8907 -23.1986 17.5464
708 1 -16.9704 6.39843 18.2982
463 1 10.12 5.22 4.44086
264 1 10.7653 32.2784 -10.1362
1716 1 24.7913 -21.6414 4.63949
1711 1 26.7234 5.38813 19.3425
601 1 14.1862 19.4379 -7.69312
1952 1 11.433 -6.90352 32.1133
1065 1 0.782878 19.0434 6.91356
1831 1 27.1922 -7.6295 17.5655
1481 1 1.30259 19.5969 5.34423
492 1 14.0522 60.9015 4.9664
1794 1 14.2069 -6.87481 19.7964
1335 1 3.28417 20.0866 4.66034
389 1 17.8303 -6.84504 4.4811
1643 1 4.64979 -6.45547 19.2684
1468 1 17.8797 6.14124 19.1221
1257 1 18.7207 19.8202 4.61282
1756 1 21.3511 20.2956 -7.76819
343 1 20.4089 7.02316 5.13653
712 1 6.95127 -19.7856 19.8348
1398 1 21.0716 -6.25108 4.3607
747 1 -5.41561 7.38479 6.61913
821 1 8.80942 19.6373 5.9664
443 1 -4.80967 34.0089 -9.46571
1269 1 8.06147 22.3469 20.7441
559 1 23.0743 -7.10609 5.26985
1813 1 -2.70637 -6.11954 5.70635
658 1 11.1338 6.11818 -8.03883
42 1 -15.753 -4.75113 4.83709
1573 1 13.3213 -20.8264 -8.10961
1320 1 -1.40942 7.43371 4.18066
1946 1 27.795 21.3213 -8.88532
972 1 -25.9948 20.7424 4.874
1934 1 -0.859243 -6.14892 -8.54483
2001 1 13.5529 -19.0573 5.3906
1847 1 14.469 8.85945 19.4935
209 1 15.1053 7.73381 -21.644
1476 1 1.87166 6.74383 5.75741
855 1 2.59677 7.14665 18.6843
1315 1 -23.6545 7.77672 -7.86828
561 1 5.9954 8.46328 3.73926
858 1 -6.93765 21.8 5.17701
1343 1 4.42332 8.04378 4.94074
189 1 19.0781 9.64166 -8.98825
1629 1 17.5267 9.35195 18.9373
404 1 5.6119 8.28378 20.1133
1611 1 7.77028 -5.35685 18.6406
1317 1 8.56419 8.97673 5.42292
1600 1 21.507 -5.4636 6.09014
1117 1 6.32541 9.02105 6.89376
571 1 10.3578 8.28855 6.158
55 1 22.8026 7.80819 -7.33077
1316 1 -3.61861 -6.30088 3.77259
907 1 23.31 -3.4144 5.11892
775 1 10.5071 9.75628 19.2734
1262 1 -0.785752 -4.99182 18.3151
1913 1 12.8839 8.07794 16.8512
1876 1 13.3 22.7788 3.72161
1632 1 28.5438 -18.808 4.9339
1995 1 -11.2911 21.8434 5.00256
1878 1 16.1942 -3.74561 46.1854
259 1 -10.3877 35.2489 -8.92052
1514 1 16.484 -5.01234 20.0873
1743 1 18.011 9.73053 4.17794
292 1 -8.48576 9.81936 17.2913
1498 1 4.75827 9.93055 5.70095
1641 1 7.15237 11.2229 17.8908
710 1 7.30449 24.133 6.40087
1582 1 5.78158 -4.95711 5.46622
1088 1 -6.97286 23.63 4.79651
48 1 6.22247 9.97462 19.8012
1054 1 21.3824 -2.94336 5.2496
1348 1 8.72221 -3.00491 19.0416
253 1 -4.55885 11.3906 4.67137
1083 1 21.8317 -2.70948 17.8839
1189 1 -18.1936 -3.9284 19.564
1674 1 -16.7944 -3.04739 18.5303
1323 1 8.81336 -2.79946 3.46168
1168 1 -13.816 10.1971 -8.60928
1945 1 12.5092 10.1394 3.878
941 1 -1.27748 -3.06168 18.5901
1868 1 -1.14462 9.55536 5.01111
287 1 28.1046 10.7534 -8.87806
897 1 -11.9881 10.9407 5.6608
1394 1 0.899119 -17.5854 32.0483
166 1 -11.2088 -4.08786 19.7607
1001 1 2.82607 11.0633 -8.09278
899 1 -11.6142 12.0014 32.1109
1624 1 1.50849 -3.69126 19.6514
59 1 2.2637 10.873 -9.01243
473 1 3.49892 -3.71192 -21.2726
1677 1 -8.45356 10.7304 4.88317
1937 1 4.07047 25.7864 34.3164
355 1 -9.6207 -16.996 5.01726
1464 1 -9.11962 11.1874 33.096
700 1 5.65215 -3.02966 3.39244
1255 1 -21.1705 -2.8542 18.0363
1401 1 8.09892 -16.3316 19.8967
1664 1 21.1452 12.5143 5.68421
1823 1 10.035 39.5087 6.29891
1020 1 -4.7194 -1.1565 5.34832
910 1 26.5549 10.8299 -7.9065
975 1 -2.73862 -1.61916 31.2937
1393 1 -16.3022 12.6387 19.3081
218 1 13.9457 10.9177 5.8962
183 1 13.1115 -16.488 3.05333
1314 1 -12.9373 11.6414 -8.27488
614 1 15.9749 -0.401673 18.3879
1093 1 0.371821 -1.61986 16.3938
730 1 17.1124 38.5358 -8.85945
235 1 2.96259 26.084 -8.40501
1575 1 -23.2549 -0.678535 5.70315
648 1 17.3525 -15.6434 6.01588
886 1 5.31553 13.4741 -7.93398
1577 1 -10.287 -0.148566 20.3905
904 1 -8.23071 -0.223404 4.05371
1238 1 6.29985 0.455464 5.04327
1266 1 5.67891 11.5708 5.45984
1023 1 8.27453 -0.421369 -7.06103
1399 1 6.75709 13.4766 19.4999
549 1 -19.7337 -13.1222 -7.36319
992 1 10.0608 12.9877 19.2296
851 1 10.7507 13.6428 -21.2301
943 1 -4.60895 -1.12254 -7.23271
294 1 -1.89405 26.7135 19.9568
952 1 25.7443 11.7467 5.78612
1637 1 -0.555719 -1.71472 19.1172
925 1 27.1313 -14.3739 -7.37425
116 1 13.9964 27.5242 5.72626
1249 1 14.394 -0.809086 19.533
817 1 1.65378 0.238447 7.65566
426 1 2.40736 40.6825 5.73863
1472 1 -9.68421 12.3256 18.6407
852 1 -23.5647 0.422947 8.02635
169 1 4.19501 0.315441 -6.69246
1164 1 16.8996 13.5566 5.10447
2029 1 -8.5128 27.7272 6.59493
757 1 3.72745 2.58097 -7.9807
372 1 -7.55032 0.0296838 -5.13129
271 1 20.604 1.69899 -5.82379
861 1 8.08625 -0.0440286 -19.5833
1507 1 6.72995 14.0604 21.2597
254 1 22.5458 28.1436 6.54879
956 1 -4.59967 28.8369 -6.25843
1460 1 9.65438 0.622517 7.88999
628 1 8.97479 -0.465458 8.37787
415 1 37.4955 15.3672 7.23387
1142 1 -1.65124 -12.5957 7.64786
543 1 11.4201 -13.6958 7.10937
1200 1 -2.85223 0.955703 7.63044
1005 1 0.832044 13.895 33.9953
806 1 -0.169836 13.9415 -6.90467
1033 1 -13.3483 28.4068 -20.0768
246 1 -12.9496 16.5539 -21.3681
1731 1 -12.3282 29.6444 20.3155
1718 1 16.4478 -10.0725 19.2342
1440 1 16.7474 15.408 5.62893
754 1 15.9099 14.9352 -20.0712
190 1 2.20247 29.0742 6.18552
361 1 16.9882 0.794155 5.61802
661 1 3.50841 29.7157 20.3864
150 1 4.19104 15.1542 -21.9976
1817 1 18.8827 1.54118 19.5345
1207 1 5.13387 -9.95177 33.4981
285 1 20.9971 -11.3533 5.84998
1143 1 19.838 17.8475 -7.38422
56 1 -5.52442 15.7554 -5.78823
458 1 -7.58054 30.1867 6.12394
946 1 -17.9323 17.5641 6.55485
424 1 7.83204 2.03575 -6.78676
392 1 9.85666 15.0386 6.02288
2028 1 8.98827 13.6338 20.9493
969 1 -16.8279 16.9864 -7.41197
369 1 11.3489 2.52089 7.19012
1939 1 12.668 -9.70732 20.3733
513 1 11.9961 -24.7669 8.33878
878 1 24.0661 16.3112 20.6807
676 1 -1.2947 0.0842799 -6.7068
1640 1 25.9416 -11.4786 7.3649
1918 1 -0.954112 0.998937 -6.99876
32 1 13.4174 1.65938 -5.81088
1483 1 1.37211 29.8734 35.0992