ITEM: TIMESTEP
105000
ITEM: NUMBER OF ATOMS
2048
ITEM: BOX BOUNDS pp pp pp
0.0000000000000000e+00 1.3679807573413575e+01
0.0000000000000000e+00 1.3679807573413575e+01
0.0000000000000000e+00 1.3679807573413575e+01
ITEM: ATOMS id type xu yu zu
316 1 13.5532 1.42014 -13.1099
1256 1 -12.8417 13.6506 15.1596
1346 1 1.98912 -13.4324 0.194618
1405 1 17.1031 14.2865 1.55591
1858 1 4.98862 0.311429 14.542
1892 1 4.30491 1.31793 29.2807
1262 1 -9.3167 -0.611812 13.586
104 1 5.9956 0.543989 14.1293
1120 1 18.4546 0.362317 13.5739
754 1 21.0955 15.9537 -12.0913
2038 1 6.59709 14.0751 15.084
518 1 7.41017 -12.1977 -0.983058
1521 1 5.83192 2.23306 13.6662
7 1 7.81949 14.934 1.234
204 1 -6.54923 14.2273 -0.120586
315 1 10.799 14.7421 1.12963
267 1 -5.38961 0.612124 0.232312
10 1 10.2917 15.3408 -1.19483
939 1 9.51831 14.8391 -0.622322
1700 1 -1.61192 0.525358 27.6704
1407 1 13.2406 0.501153 27.2854
1864 1 14.5395 14.0507 27.2886
419 1 0.417915 1.71144 1.34518
1414 1 0.998818 16.2635 0.494583
567 1 -0.147784 2.53024 1.72314
1085 1 2.65093 -11.3821 16.382
1977 1 2.40347 14.923 29.1532
785 1 17.0114 -11.8238 1.29692
792 1 16.3795 -12.6202 14.3755
1461 1 4.61265 2.5129 15.2806
988 1 5.30961 15.2776 0.602467
1473 1 19.8506 28.8092 1.30664
894 1 5.67464 2.38697 15.0799
1965 1 5.21886 16.2595 12.6112
1335 1 8.11005 3.22738 15.5675
1634 1 -5.90237 15.5231 13.8084
983 1 20.2455 16.4348 1.28111
1554 1 23.7729 -11.3499 14.9574
1841 1 8.99287 2.45338 0.845796
1427 1 -3.97117 1.39581 1.63241
1795 1 -3.60461 1.44771 27.9371
1395 1 10.3401 14.2994 15.825
913 1 11.9841 2.3507 13.6391
87 1 -1.30327 14.6081 14.8086
832 1 13.125 15.8732 -0.150711
1466 1 14.7854 1.19401 14.3041
1295 1 15.1622 3.40271 14.7365
1071 1 27.5466 5.13457 13.7773
37 1 -0.936065 4.01233 -12.0089
871 1 0.648711 17.7665 0.640698
1575 1 -11.5208 5.2087 14.0299
1358 1 -10.4465 2.77516 1.09022
1573 1 1.47167 2.82129 -0.638463
1155 1 3.65515 2.05998 2.31812
1880 1 2.95035 3.26795 0.0621966
1192 1 15.6854 4.23848 14.4085
560 1 4.51587 17.1771 14.8459
93 1 18.585 19.3629 0.261079
1053 1 18.5077 -9.19281 1.47727
74 1 -7.94344 5.27458 14.6786
125 1 6.2572 3.15892 -13.3027
1911 1 20.82 3.61024 14.8619
826 1 8.38415 2.73423 13.7406
1910 1 22.6539 4.51159 13.9016
1122 1 12.4404 4.39052 14.4104
1967 1 10.892 19.2527 1.96121
1490 1 12.3922 17.4403 13.4853
400 1 -1.88335 15.5245 15.0151
1375 1 11.9856 -8.86979 1.79653
741 1 0.980006 19.1738 15.494
350 1 27.0245 -7.47857 0.0523558
77 1 2.01061 3.94433 2.25182
1323 1 0.249732 4.73781 -0.939913
207 1 16.9256 -8.67706 0.467697
1631 1 17.3726 3.9263 -0.270259
287 1 17.6249 6.27138 0.339308
1309 1 5.28951 5.22438 13.0117
1329 1 5.66521 6.55108 13.9469
808 1 6.73068 4.82772 0.888047
166 1 -7.96836 -9.54304 14.6688
108 1 6.71738 5.70384 15.0719
71 1 -4.00378 19.0797 0.29445
1281 1 -5.65337 -8.7494 1.4446
1272 1 7.63612 5.63316 2.05684
1654 1 6.98779 4.79128 -0.129507
1601 1 -2.52746 3.94931 12.9238
721 1 11.1729 16.8015 13.9658
62 1 11.301 5.74203 -0.2802
367 1 12.0601 4.89448 -0.363907
1273 1 0.0784305 4.84677 1.36839
1729 1 -1.20276 20.2811 27.7267
1793 1 11.561 5.07553 14.4075
1276 1 1.43499 -7.18348 -11.9632
219 1 13.4878 19.9182 1.9289
978 1 14.7496 18.7931 0.685168
1623 1 15.3125 -5.89068 15.2103
956 1 1.72199 19.6154 0.971169
392 1 2.47369 6.59664 2.01202
24 1 1.97649 -6.64776 1.02791
205 1 -10.11 17.7236 0.830771
1048 1 3.83582 6.05087 15.3596
1606 1 5.1978 6.96988 15.0395
903 1 4.70698 6.02274 14.8434
1157 1 7.42583 6.71572 2.00661
111 1 7.45487 7.65121 -11.2369
1064 1 6.85498 7.46151 1.44476
1147 1 -5.86525 5.93196 14.6209
1615 1 -5.00005 5.37224 14.2187
1292 1 8.82426 7.34855 26.8966
1644 1 9.74725 6.92056 13.1807
103 1 -18.6278 -6.84024 0.494293
116 1 9.05336 19.716 -0.280693
770 1 -4.29781 -7.7033 14.8553
564 1 -3.84213 6.66333 0.511257
1339 1 10.7214 -7.63744 14.2071
1789 1 0.231818 9.06178 15.1166
1847 1 12.8694 6.61989 14.9582
1968 1 -0.120707 20.8314 14.5361
1469 1 14.3694 8.10692 1.66172
717 1 16.7064 21.4546 16.5895
63 1 27.7575 -4.04936 2.61211
1929 1 1.03733 8.89478 -0.0753387
1842 1 1.9065 8.78099 14.0872
1951 1 17.8334 7.37705 15.0513
9 1 16.7916 7.88408 1.70766
625 1 3.17161 6.87434 14.7849
1938 1 3.82739 7.58174 14.1251
927 1 6.02259 7.4335 14.3675
883 1 5.77421 7.6861 1.83476
1110 1 21.2046 8.73431 27.5162
1724 1 19.7897 22.0052 13.7199
1280 1 7.74276 21.9275 14.7932
149 1 -5.88253 7.08668 -12.6581
1370 1 -5.27572 -5.76174 14.217
1527 1 9.272 7.80013 1.00666
1896 1 10.8654 -5.23945 15.1217
1777 1 10.6004 21.1368 14.6496
1365 1 11.6489 7.95882 0.939974
1331 1 -0.938176 -4.14098 1.57777
85 1 12.9869 -3.22177 -0.792426
498 1 14.9965 23.1534 0.762599
1485 1 0.582631 10.1822 14.0058
776 1 1.60498 10.5512 14.3727
999 1 2.03482 9.7634 2.05652
1782 1 2.79428 25.4697 13.8525
1983 1 3.12922 -4.24534 1.67818
308 1 3.77994 9.98867 0.844935
1684 1 4.19847 -3.98049 13.4547
542 1 4.98158 -4.51871 0.167711
765 1 6.40915 9.30465 13.5897
1184 1 5.74885 -3.73896 0.421949
1074 1 6.60164 10.4455 -13.0636
307 1 6.39376 -4.27813 14.8075
1061 1 6.76793 -3.12084 15.3566
1080 1 6.25368 -3.47031 16.2454
1232 1 7.64133 23.9656 14.2105
1707 1 8.95565 9.95456 14.5864
1594 1 20.8968 10.2228 12.7284
384 1 -4.75062 8.6351 -0.194408
420 1 -3.70332 23.63 -12.005
1237 1 10.0747 22.2408 0.668948
1969 1 11.8525 9.04797 15.1631
865 1 -2.75843 9.41609 14.9898
1624 1 11.807 -2.45898 15.4082
309 1 10.1157 -4.84351 1.91984
1418 1 -1.60138 23.2335 13.2406
1495 1 11.6804 23.7179 -12.8192
1843 1 12.8066 10.0164 13.8186
1440 1 16.3787 12.6129 0.814933
1114 1 1.03798 -2.31271 0.0769064
257 1 2.11459 11.0933 -0.189177
1978 1 17.5634 -2.52584 0.812744
892 1 1.43829 11.1075 12.6851
1340 1 2.55669 9.56971 27.9661
1876 1 4.91209 10.4202 14.2596
780 1 4.96143 -1.95861 0.805324
1672 1 4.24948 10.6254 2.73816
641 1 4.66563 9.46603 14.7759
2012 1 19.4781 -1.35757 0.271045
1191 1 7.75133 11.2401 12.6228
535 1 6.68983 11.5043 0.506283
729 1 6.67883 10.8032 13.3503
359 1 7.88558 -1.30569 0.443776
639 1 7.7051 11.2523 0.819985
280 1 8.89243 11.0755 1.13459
1728 1 9.71794 11.5527 15.0744
1629 1 9.20171 -1.57693 14.3345
54 1 11.4054 11.842 -14.2987
884 1 11.7405 -2.31792 0.639207
461 1 -2.60039 12.764 0.707498
1697 1 -0.350846 11.3358 13.3521
1090 1 -1.35932 -1.91851 13.416
684 1 13.7297 25.4985 2.04617
787 1 -0.877861 -2.6141 0.603963
1242 1 11.7372 -1.47287 15.2603
439 1 0.597739 12.4654 0.0720472
1721 1 27.6892 12.754 14.8697
366 1 1.67467 14.1727 1.10429
545 1 -0.155102 13.1139 -0.121176
1646 1 4.33649 -13.6611 -11.8331
1258 1 -10.2947 13.3344 1.97745
649 1 4.30824 -1.80226 15.3327
872 1 4.83364 -13.1912 2.76321
748 1 -9.94008 12.5988 1.08216
915 1 4.80225 -0.931244 0.747385
743 1 -10.0146 12.1119 -0.384369
851 1 6.02531 12.015 1.27942
1932 1 7.37798 -0.676442 12.7625
640 1 20.7906 -15.2486 13.3699
2045 1 19.734 13.1892 1.06924
436 1 -5.84486 13.929 1.07545
491 1 -5.91922 13.4201 -13.5628
1165 1 7.80032 12.1204 1.53909
290 1 -4.04484 13.2816 15.1457
1520 1 -3.05548 13.6714 14.905
583 1 8.54981 -0.631288 1.64371
1958 1 -3.54158 13.0724 14.1157
1529 1 11.0621 13.9662 13.972
928 1 -1.3423 -1.36999 14.2658
1369 1 -0.323826 12.0647 0.739315
1861 1 13.4898 13.6052 15.9694
1196 1 -0.412277 13.06 3.0579
692 1 0.184185 1.56644 2.36485
1366 1 12.8847 15.604 2.17431
345 1 14.9297 14.823 2.00053
99 1 5.23571 1.28839 -12.0965
456 1 2.26209 14.2192 4.08536
1154 1 4.68047 15.1723 16.8848
965 1 -6.66851 14.8326 0.656815
1044 1 6.85905 2.45649 17.2818
602 1 6.84438 0.366308 2.80693
823 1 6.28054 13.4541 2.32396
1541 1 6.81916 1.24773 2.09212
646 1 -5.84506 1.48076 16.181
1783 1 22.4884 -0.767407 16.417
1588 1 -4.81815 -12.9309 1.31458
2024 1 -3.81314 14.2206 14.6691
1725 1 11.558 -13.1419 1.63167
2010 1 12.3719 14.7321 2.23007
524 1 -0.624231 -0.87196 1.93776
1252 1 -0.380911 14.8215 15.1272
1225 1 -0.643663 14.7049 3.01423
658 1 2.2831 2.53464 1.8244
2041 1 16.7896 0.661801 17.1292
330 1 15.0059 2.03421 2.58611
1599 1 17.2845 16.6758 16.5942
1652 1 -8.04469 1.17304 2.712
839 1 4.56473 2.55429 2.98159
531 1 5.1339 2.01991 2.25939
1998 1 -6.58558 1.43024 16.9198
1947 1 8.43773 2.33318 16.4798
1769 1 7.44153 30.2539 16.4107
1640 1 19.7997 1.00567 3.75812
242 1 10.9023 1.98498 -11.8507
1430 1 22.8887 17.0791 0.388523
1178 1 11.103 2.19 14.438
1488 1 -1.98298 2.006 2.42385
1028 1 -2.21373 2.89793 15.1719
379 1 -0.901112 15.814 0.770454
238 1 11.3522 2.3812 3.31984
887 1 25.1944 1.40926 -13.416
1507 1 -1.70988 16.7748 16.5107
19 1 -0.715316 2.76682 3.21907
890 1 -0.414923 3.69372 2.55673
1528 1 -1.1537 16.5293 15.208
297 1 0.913774 -11.2377 1.71758
1814 1 14.5106 3.40664 16.1112
240 1 15.5733 14.781 16.4449
1035 1 1.37183 4.72518 2.49457
82 1 4.02029 -8.52354 1.09887
398 1 2.65922 17.415 1.39639
735 1 3.99673 4.35586 2.08762
985 1 18.3521 4.25339 13.9733
1933 1 5.83537 2.0681 16.8358
1698 1 -8.02692 3.03653 16.4413
1223 1 6.5662 2.28844 2.39065
220 1 7.15879 17.717 3.63068
237 1 5.35454 3.32264 -11.8842
1103 1 21.5132 3.31282 3.93013
534 1 -7.32042 3.46682 1.98646
702 1 23.4424 31.0741 2.12326
1492 1 22.1258 -11.4437 15.3245
1449 1 -2.93638 4.82844 -0.200157
95 1 -3.25976 16.991 1.1535
225 1 -17.1796 -9.43742 1.0886
710 1 -2.8617 16.8561 2.27505
949 1 -2.34715 4.04057 0.803179
1384 1 10.8373 4.46348 15.4886
1190 1 13.3757 4.06568 14.1963
1645 1 -1.8704 3.7512 -11.5864
984 1 -14.4144 18.3862 2.40053
327 1 1.66955 4.27016 3.70511
1860 1 0.121244 17.453 15.227
1496 1 14.7952 4.37173 15.3044
1265 1 2.53319 18.6453 16.4526
876 1 4.43255 32.6317 2.17011
483 1 4.1368 4.35618 3.26097
16 1 4.57688 6.46341 15.9409
2004 1 -8.26543 -7.74614 15.5846
1772 1 4.567 3.51664 2.66339
1879 1 18.8434 4.93824 16.671
697 1 20.6905 4.74979 2.04204
1705 1 22.2294 17.965 15.8944
746 1 -5.2884 19.4171 3.49389
1163 1 -5.80499 4.68231 -10.4441
1737 1 -4.73394 3.65146 1.41198
652 1 -3.74579 4.6984 -14.9704
1030 1 8.99154 4.88065 2.96538
271 1 -4.41703 4.56979 -12.1939
1009 1 10.5172 20.1406 15.2746
1839 1 9.91258 -8.34522 15.4424
1089 1 -1.95166 6.20361 15.1598
855 1 -1.32242 -8.05731 16.0316
1735 1 0.32562 6.12043 14.6557
484 1 0.150381 5.30325 2.40621
1128 1 14.3661 -4.95066 17.0869
1731 1 -12.172 20.6626 16.6921
1158 1 27.8477 7.1189 2.21448
1607 1 1.9718 5.5814 29.3907
734 1 2.123 5.96374 2.99676
844 1 1.25854 -5.68042 16.2734
548 1 -24.5835 5.54353 1.3491
1683 1 3.08125 4.63058 15.3825
1979 1 3.11453 5.83521 16.1779
585 1 6.16949 6.57615 28.8648
1058 1 6.55004 6.22561 14.1829
1781 1 7.39701 19.7629 3.08406
1774 1 6.39422 19.3499 16.0385
1289 1 -5.07423 -5.45624 2.90316
1641 1 8.47457 6.41235 15.1408
679 1 8.32018 6.28309 2.58683
295 1 -4.83576 5.51087 2.01945
1981 1 9.53171 6.24209 16.0726
934 1 9.46733 8.20832 2.32997
1997 1 -3.11412 7.41106 15.742
970 1 12.9052 5.5085 1.49158
380 1 11.4788 -6.8543 0.659062
774 1 13.1706 -7.38614 16.6033
346 1 -1.17913 -6.89541 -11.432
485 1 -0.58074 -6.26408 1.86159
766 1 13.6598 22.0631 2.43894
1555 1 15.2116 -4.55536 2.87634
1713 1 16.2094 -5.02108 -10.151
689 1 3.4761 9.41553 3.95034
661 1 4.99737 21.8275 1.53559
1360 1 4.83432 -5.19704 2.7797
1617 1 6.75616 -5.30786 14.6212
1060 1 -9.75236 8.579 -0.00808986
1234 1 4.63716 7.50372 2.30127
150 1 5.42103 7.54337 -10.6331
1689 1 20.0585 6.60234 16.3193
1502 1 17.954 23.2486 18.2018
404 1 5.71566 8.89029 15.7093
1816 1 21.0013 8.60323 2.98063
1283 1 6.77318 -4.33231 2.07175
711 1 8.49278 7.97193 1.81664
1975 1 21.728 23.1647 2.84417
1314 1 -6.5153 7.70242 0.17161
1583 1 -5.93846 22.535 15.7145
441 1 9.59442 6.93592 -12.1525
1462 1 8.7213 7.17376 -11.2147
1456 1 11.6951 7.3567 15.5379
1509 1 10.3183 8.71667 3.1613
1148 1 11.6917 21.9976 2.13073
53 1 26.2667 -5.31427 15.4408
678 1 12.7132 7.93864 16.599
805 1 13.3679 8.12124 3.71014
1980 1 12.3794 9.13199 16.1719
88 1 13.5252 -3.70939 1.00056
1113 1 2.16257 22.5734 15.0529
1301 1 14.976 9.12423 1.75988
1422 1 2.28964 8.46315 16.1877
981 1 30.4794 9.32673 -11.0034
1306 1 4.2106 9.66011 15.875
866 1 -10.3985 -5.01622 0.790673
454 1 -10.9624 24.108 2.67768
1217 1 -9.72153 8.70266 1.73182
973 1 5.40217 -3.71437 15.4864
1408 1 6.58376 8.28075 15.6832
8 1 -7.40826 10.0736 4.72476
2029 1 8.34218 9.93196 1.92133
1442 1 6.98584 9.428 17.4705
916 1 -4.73158 9.81707 2.83938
578 1 11.0386 9.56875 3.54625
2044 1 9.1594 22.9127 2.00964
1086 1 8.56202 -4.83368 1.12453
761 1 10.925 10.3921 1.69421
685 1 -1.63646 11.149 2.77549
449 1 -0.928419 10.807 15.4393
347 1 13.0565 10.0192 16.1955
30 1 11.8261 -17.2349 -25.3574
2019 1 1.05134 10.0311 15.2308
1070 1 0.173089 -2.65306 14.4495
1253 1 14.5934 11.4479 1.29395
321 1 0.442878 -2.91579 2.12155
1101 1 13.713 -3.20405 3.26736
1444 1 2.74966 24.5241 14.2559
510 1 2.7049 11.5687 2.38921
11 1 2.68777 -3.14749 1.68363
1205 1 1.99759 11.2577 16.6766
371 1 -10.0731 11.0034 1.82984
268 1 15.6933 -3.92242 3.61143
621 1 4.52246 -2.44311 4.0326
1530 1 5.39783 25.0052 2.45869
440 1 20.0896 11.3448 2.4112
468 1 5.57473 8.61608 -12.8233
868 1 -6.75969 -2.04586 15.2526
899 1 -6.58866 12.5671 31.2958
1753 1 5.83695 10.9786 1.47317
200 1 -6.78756 12.5786 0.953561
331 1 8.47008 -2.91917 -10.8664
1727 1 7.12519 -3.00522 2.81873
1169 1 10.7945 11.5396 1.62775
1476 1 -4.38201 24.2752 2.03466
1831 1 24.1575 -1.45771 16.0314
1279 1 -3.34622 39.7879 1.44244
2046 1 11.4501 12.0045 16.3557
1883 1 11.7219 11.3813 17.6011
1238 1 12.3122 13.5684 2.1812
1376 1 -0.873674 -1.79458 2.56257
1540 1 -0.854601 -2.60055 17.476
923 1 14.3852 12.7269 15.9139
802 1 1.37247 25.3874 16.0073
1988 1 2.56035 13.9463 16.1382
284 1 17.1626 -14.9571 2.62886
1542 1 2.78623 -1.23989 1.82132
92 1 15.6885 11.8951 -12.141
1259 1 3.32033 11.2538 3.28388
935 1 18.0908 12.7364 2.13604
2048 1 4.51331 10.4438 15.2238
1477 1 19.2773 14.0094 15.4793
1912 1 6.78311 -1.13753 15.8425
1303 1 20.9495 13.3815 1.82883
1757 1 7.77715 -1.14814 2.58021
1482 1 -5.48909 -0.00377781 2.38609
1608 1 -5.93456 -2.78854 15.7682
533 1 10.1052 -0.390346 2.33128
253 1 -3.09793 -1.9336 0.470126
1287 1 -4.94103 -2.0152 2.06937
1267 1 -2.60956 12.9886 -10.6439
1875 1 23.0546 -1.2389 2.00189
637 1 -1.84839 -0.274904 1.00147
1263 1 13.0101 13.6909 1.38455
538 1 -0.914311 25.4096 1.47421
1882 1 28.9105 13.7281 15.8613
334 1 0.602269 14.114 2.65327
1822 1 14.815 0.14571 17.1701
213 1 16.4851 2.04725 -8.61118
1590 1 2.27721 -12.1098 3.81885
105 1 3.4143 1.48406 4.29723
926 1 16.7655 13.905 4.63867
1621 1 -9.80006 -12.8319 16.3401
1333 1 17.7457 -13.3056 17.4103
822 1 -8.63 14.9046 4.14818
1499 1 31.7608 0.0337082 18.5663
1863 1 19.1693 -0.688481 31.3794
1215 1 19.1963 12.6414 2.18138
1987 1 -7.77595 13.695 16.8533
276 1 -7.90276 0.578174 -8.97149
1627 1 7.81229 -14.1275 3.55059
573 1 22.772 -13.3427 15.9346
858 1 7.81305 14.2767 3.19704
1985 1 -2.76336 1.47102 16.6542
1805 1 24.2929 0.93636 3.9534
412 1 22.5334 0.107606 -10.3243
508 1 9.92148 13.4852 17.4031
1809 1 9.93989 -12.7705 3.2429
1936 1 -1.63906 0.494618 17.8052
650 1 -1.29156 13.9461 3.06549
784 1 13.038 0.0458718 -9.73513
1421 1 0.880791 14.9933 3.16063
1454 1 15.4405 16.6412 16.6105
1382 1 0.168268 2.60536 2.81096
2011 1 14.6189 17.1661 17.0703
580 1 3.28208 17.5574 3.70889
1591 1 2.52493 1.0242 5.07696
81 1 3.17504 3.01939 4.44218
1692 1 17.5323 15.9094 18.5745
1241 1 17.1961 16.6262 19.2949
1088 1 3.53079 14.9846 5.3873
43 1 4.67759 0.933169 5.25358
1104 1 17.3933 2.40216 -9.91598
2028 1 4.40219 17.028 5.9225
462 1 5.50768 15.3026 5.21495
338 1 8.57279 1.32097 3.30464
302 1 -5.71728 1.83731 3.98349
1026 1 -18.3507 1.4764 2.38409
1568 1 11.1926 3.47884 17.0369
1255 1 -3.41524 2.22473 16.2975
1350 1 -15.0154 1.81516 16.8842
1786 1 25.2685 15.0685 17.4018
428 1 0.0298075 15.3672 3.52147
341 1 -1.5559 4.0504 -10.2883
165 1 -0.566414 16.54 -9.43094
1445 1 0.902879 18.6477 18.1286
181 1 14.1702 18.2195 3.18655
1771 1 13.5744 17.7131 -8.99656
1524 1 16.3348 16.9882 2.64113
772 1 3.63151 3.18624 15.6249
581 1 4.21516 3.40641 17.4707
248 1 17.2732 18.5579 4.4442
592 1 -8.04324 3.27007 -9.29009
1605 1 5.22778 4.36763 -9.30969
1474 1 5.20843 29.9901 3.72096
1846 1 6.35723 5.07166 4.79206
413 1 19.9791 3.43535 3.40305
901 1 21.8928 17.8999 -8.52332
1399 1 20.8879 4.30586 18.4525
1889 1 8.25104 16.1916 18.689
41 1 -4.11717 -10.9305 2.13809
1744 1 -4.43164 2.01357 17.122
980 1 9.73899 17.5393 -9.7575
1612 1 -4.7151 3.32021 16.6297
229 1 -3.60909 16.8278 -10.6113
1008 1 10.8759 16.8179 4.3467
1002 1 11.4198 18.1065 16.3773
1112 1 -4.33896 5.74852 4.18834
2 1 -2.48575 18.3814 3.81487
992 1 13.51 3.82587 30.9316
511 1 13.3583 5.02213 -9.23683
1791 1 29.172 19.3508 4.29978
1859 1 1.22971 5.18648 19.3948
1017 1 0.987396 20.13 3.89978
1359 1 -0.270401 6.14856 20.154
955 1 1.36392 5.19157 -10.2001
1828 1 2.57071 18.6086 3.74766
1412 1 2.69033 16.4247 17.2397
1996 1 2.39282 19.9062 18.6189
5 1 3.37669 -6.92136 -10.4449
532 1 16.9061 4.28562 2.7026
152 1 4.68914 6.83516 3.14482
1638 1 5.36312 17.5981 17.0305
1207 1 4.82275 5.51589 18.5415
198 1 -8.07455 19.5778 3.07734
1921 1 -7.62294 4.54408 16.2732
1029 1 5.95895 -8.59626 17.3029
1127 1 -6.38378 5.19302 4.04392
1057 1 -4.29049 -9.06732 18.4953
1451 1 8.537 4.21925 3.89615
1433 1 6.91523 5.0499 16.7531
1659 1 8.54183 6.67775 4.57874
540 1 -3.56269 4.82395 3.68735
1960 1 -3.34976 18.0458 2.72603
742 1 -3.1085 5.83457 -9.90611
1313 1 -3.47418 19.0739 2.7493
376 1 12.0046 6.29942 16.9332
849 1 12.6806 -7.70498 4.12684
853 1 13.2188 -6.2395 4.89683
1022 1 28.3332 -7.65735 2.74421
1096 1 15.3667 7.08852 4.23663
1648 1 13.3679 6.80549 19.3978
750 1 3.40403 6.213 5.89452
55 1 15.9154 7.48381 2.43904
432 1 1.61136 21.7202 3.64817
701 1 18.0619 5.84273 16.7336
340 1 4.24545 7.64887 5.00537
139 1 17.3034 18.933 -10.0826
1873 1 3.13573 7.8049 18.5216
1664 1 17.7413 21.3495 -10.5261
1236 1 7.68576 19.8994 4.12193
211 1 -8.25893 6.0673 -9.61333
1678 1 -7.20925 7.74273 3.21079
760 1 8.45217 5.23291 4.79413
492 1 9.49927 34.3521 4.26775
1508 1 7.07554 7.00858 3.57977
255 1 7.82135 7.84614 3.49151
828 1 9.69772 7.36819 2.91306
976 1 -4.37081 6.43336 -10.3547
51 1 -5.29406 6.94249 -10.1608
862 1 9.53338 -6.71538 5.43786
1352 1 -1.79629 7.26047 3.14519
193 1 -3.38392 6.56217 -10.6837
300 1 -2.44437 6.59639 -11.2359
1021 1 14.0521 19.0588 3.6877
351 1 12.3299 -6.78457 4.53371
1622 1 -0.587235 5.42003 17.0103
667 1 14.2341 7.72962 3.23134
1118 1 -0.386665 7.23255 16.9213
84 1 15.3293 -4.71853 4.0275
1144 1 2.75622 -6.05938 3.99929
1001 1 3.51134 7.07529 2.13352
759 1 3.73626 7.46903 17.7984
426 1 2.42752 20.2954 3.79167
1845 1 3.73795 8.58532 17.2267
1136 1 5.812 7.99131 4.07024
810 1 4.40971 9.50611 3.19142
1743 1 6.0469 22.472 3.04604
668 1 8.75679 9.9793 4.19803
893 1 21.6605 -4.77777 3.70888
1801 1 -4.38254 8.93524 3.22851
1603 1 -2.71411 8.51953 18.0987
752 1 -2.00438 8.51479 3.34187
395 1 11.0085 9.26447 2.37846
101 1 13.4725 6.5458 -9.33402
1457 1 1.67891 24.5032 15.3991
699 1 13.6057 -3.0358 4.32497
1439 1 28.0999 9.19329 19.2554
1167 1 -12.6833 -3.94609 3.49218
1000 1 2.33582 23.9484 18.4472
1796 1 1.39339 10.3495 2.66135
648 1 5.31856 -3.64679 6.04127
706 1 3.99922 10.2771 -9.77919
1690 1 3.93013 9.99219 5.61483
1738 1 3.35909 9.18558 18.8493
1367 1 5.09878 9.00474 17.6171
2009 1 -8.21901 9.49626 4.92952
1704 1 5.00429 -3.62193 17.6458
820 1 6.0701 8.89258 17.9763
758 1 5.89658 9.63035 3.60415
1597 1 7.95027 -3.43396 3.7085
1959 1 -6.81068 24.1825 3.98794
1681 1 -17.2581 9.68669 2.85298
1371 1 -3.62653 -4.83859 4.11731
1560 1 -3.92745 -3.88466 3.8544
1851 1 -2.55188 -4.39237 5.37204
1206 1 10.71 9.74424 18.1686
644 1 -2.58638 -3.24328 16.6443
1941 1 -1.08424 9.9609 4.04064
1406 1 26.9383 9.15084 3.1096
275 1 12.1146 10.0323 3.07031
1260 1 0.815822 10.9677 18.504
1887 1 14.462 11.5456 17.0116
1261 1 1.83527 13.0011 3.60457
1829 1 2.68201 -3.11609 3.87544
1249 1 3.23892 24.423 5.15047
1409 1 3.75895 13.4425 16.5879
218 1 4.55197 12.9499 4.13863
756 1 4.36807 25.3931 2.92179
740 1 -8.40555 10.2721 16.6094
1150 1 5.06133 12.1153 3.65344
1775 1 18.2297 11.0183 19.0783
249 1 6.05312 24.8637 3.45951
1763 1 -6.73036 11.9532 3.17774
472 1 6.04596 12.0102 4.13624
320 1 -5.87655 11.16 3.43877
1450 1 8.25553 12.2744 4.53067
17 1 -3.25521 -2.80438 3.8943
779 1 10.2117 -2.72085 -11.1948
1460 1 23.2631 10.7033 17.0367
272 1 -2.85417 -1.73427 3.54316
1194 1 11.0744 11.7613 4.60716
1784 1 12.9635 25.5836 4.67517
123 1 10.3366 -1.27111 5.38381
488 1 0.0731757 13.0075 4.82089
962 1 12.2019 11.3157 5.06892
739 1 -0.452873 26.3179 4.04804
1913 1 14.0053 13.4096 17.6037
1619 1 0.415237 -1.54605 4.31639
479 1 0.700571 12.536 3.29567
1185 1 -9.7467 -1.54383 4.00106
1452 1 15.2708 11.6989 4.24501
224 1 2.63514 12.298 3.41624
593 1 4.82718 -0.523005 3.16145
597 1 16.0371 -0.684494 2.64867
1732 1 -9.03865 12.597 5.84797
1458 1 5.87894 12.1809 16.7307
1600 1 3.46524 -1.01905 18.5491
1065 1 -8.23894 -0.611094 4.99898
1849 1 6.40758 -0.303055 4.05597
310 1 6.66457 13.0269 3.16275
896 1 -4.19088 -2.06565 16.5007
557 1 8.4608 -1.81849 -10.6109
1708 1 -5.17759 13.6378 4.4626
1357 1 8.87134 11.4933 3.98462
1906 1 -3.79605 -1.09083 3.33235
227 1 -2.79114 14.1277 16.6521
1332 1 11.0701 -0.61568 15.6101
433 1 -3.06279 12.7716 4.15909
453 1 -15.7838 13.2587 3.89854
516 1 12.3703 -14.7339 -10.4395
1209 1 -0.436833 1.18974 5.45987
845 1 11.9178 12.3106 4.26347
861 1 11.9494 -0.424471 -7.88856
1802 1 13.7053 14.5137 17.8953
56 1 0.869451 15.5205 4.41492
622 1 14.3122 15.4991 5.65192
908 1 13.7385 13.5715 6.10507
525 1 1.42841 0.303588 4.79188
1511 1 15.6788 30.2812 4.60137
940 1 -10.7286 1.39216 6.72487
259 1 -12.2322 15.0643 -8.4728
1479 1 -8.11403 27.7127 5.72346
1836 1 17.6239 1.28519 6.41663
979 1 20.0388 15.02 19.3122
134 1 7.06384 14.377 -9.58504
2027 1 7.41752 1.48441 5.21626
89 1 8.29984 3.0816 6.01242
67 1 -4.39207 14.3543 3.98839
1810 1 8.74978 1.07387 18.8766
1872 1 -4.41152 2.08786 5.21234
942 1 10.8595 1.34809 4.87801
86 1 37.1314 -12.7042 4.81943
80 1 -3.24568 13.4005 6.01038
1045 1 11.5215 2.06626 4.84914
867 1 -1.38395 15.7787 5.84302
305 1 10.7526 0.0756074 -9.18167
102 1 -1.20531 13.1603 -8.98354
1117 1 -0.595605 0.186731 5.22365
608 1 12.1554 14.403 5.34556
1564 1 13.3777 3.99868 19.3411
1052 1 14.1918 16.5769 4.26935
1278 1 1.50442 16.0285 3.76879
703 1 15.1209 -10.4367 5.7421
1293 1 14.7983 17.2715 4.78998
974 1 3.23869 15.8953 6.21887
791 1 2.57073 1.29086 21.3324
179 1 16.1567 17.0392 5.87897
1587 1 5.54696 2.73385 5.78286
1559 1 4.91716 1.763 19.6576
922 1 5.97361 2.28771 17.9177
579 1 18.0375 2.41287 6.70035
1543 1 -7.23609 -11.1166 5.16159
997 1 7.78332 28.5634 6.64853
895 1 20.321 3.3086 6.07629
2016 1 8.11959 14.5141 17.882
2017 1 -4.72107 15.3052 17.9823
813 1 -6.14729 3.20057 5.28472
523 1 9.72455 4.45704 20.4807
875 1 7.33313 2.23416 6.10764
1526 1 -3.20597 2.09799 17.5141
1015 1 -3.38457 15.9315 5.08934
196 1 -15.2063 3.10276 -9.60046
466 1 10.3173 2.43522 6.19411
1990 1 12.6129 3.87568 4.59591
1531 1 12.5232 1.31569 4.43669
1193 1 13.4718 15.6273 18.3334
1522 1 11.5549 17.6085 4.37662
112 1 -1.47613 4.91589 4.38554
1952 1 13.8235 -8.90873 19.9681
482 1 2.1468 17.5448 4.46362
666 1 0.81353 4.14823 -7.97645
61 1 3.34925 5.07103 6.46566
12 1 3.6027 17.6381 4.93916
1387 1 3.31594 -11.4035 7.36768
799 1 6.27123 3.5955 5.14489
1930 1 4.87641 2.34283 4.79299
589 1 5.24703 17.3771 5.42047
1651 1 6.86027 3.17944 18.0208
1533 1 20.0914 17.3619 20.8797
1970 1 -17.6141 2.786 17.9193
279 1 22.3645 -10.9574 4.03456
38 1 8.67554 4.33472 -6.91425
762 1 22.6638 17.2886 -9.00651
966 1 -3.62947 17.1998 4.9647
1661 1 9.19025 4.28828 19.6238
941 1 10.5825 4.4687 4.72287
670 1 10.292 6.56419 -8.82537
355 1 -3.33532 5.48509 4.68303
815 1 -1.57859 5.07467 3.2458
47 1 -1.51715 -11.0305 -6.80691
317 1 -2.73941 -9.65315 5.65565
2020 1 0.311157 19.4539 19.2393
1484 1 0.624169 6.70478 4.93843
1974 1 15.0127 6.06878 18.8112
1042 1 2.27807 -8.68103 6.91974
588 1 3.02944 5.74641 4.28286
675 1 4.58429 18.7499 -9.74107
1758 1 18.1666 19.3485 6.011
1669 1 -9.99938 5.30098 5.32562
700 1 18.2822 4.41649 5.73292
128 1 19.2743 4.73396 5.38366
1222 1 5.28467 5.54533 20.326
223 1 7.26277 18.8475 -7.36364
216 1 6.54438 18.1806 5.92175
1792 1 6.20595 17.7851 17.858
194 1 -5.40432 5.03506 19.5844
144 1 -6.27115 5.45642 5.20166
612 1 -4.47862 6.85951 6.64062
943 1 -3.795 5.82987 -8.17193
1229 1 9.43895 5.61284 6.4399
1741 1 -3.23306 6.20249 6.29181
587 1 -1.38963 5.14088 5.90418
357 1 11.2509 5.65435 2.88853
332 1 -2.08131 5.64136 3.95884
490 1 -2.20893 18.5774 -22.0859
1312 1 13.2273 6.97208 20.6663
451 1 0.750504 -6.10799 4.29802
399 1 -11.0415 7.64847 -7.88276
1294 1 -10.324 6.69739 -8.9621
109 1 17.8559 -7.62033 3.96168
476 1 6.53538 7.24778 4.53946
798 1 5.42559 6.16516 -8.07483
1315 1 -7.65591 6.76969 3.67631
1643 1 5.24496 -6.68485 4.675
698 1 33.7605 19.8182 5.03044
2025 1 4.36381 20.1377 5.21995
1561 1 -5.78673 6.27163 18.9086
1363 1 -7.16726 -7.86222 3.90594
118 1 20.9049 6.99518 -8.20481
1794 1 7.5935 -6.27788 4.48097
1942 1 7.79062 20.4445 6.46761
693 1 8.85193 -7.60395 -7.95581
1867 1 10.0033 7.88964 -9.11811
1211 1 25.0341 6.78903 19.1346
1982 1 11.3025 6.54174 17.9606
773 1 12.9133 5.68792 5.16728
504 1 28.3542 8.52196 4.63224
1324 1 -1.34886 6.2352 -7.70759
814 1 1.92721 -5.71201 -22.6113
1059 1 1.33381 -6.14746 5.58311
1862 1 17.2359 21.9961 19.4526
1266 1 1.9236 6.47748 5.95569
161 1 2.55083 9.0786 4.53272
1877 1 2.57098 9.68318 19.5049
1320 1 3.79208 8.55378 4.55618
609 1 4.41729 -5.50781 -7.49073
803 1 2.75436 -4.96461 6.58094
1562 1 18.4837 -5.73367 17.5797
1219 1 6.27769 9.68198 5.75534
1680 1 -7.31158 8.36921 18.9429
424 1 -6.89215 9.22039 4.86792
1142 1 -4.38052 -5.69447 3.65677
547 1 -4.63735 -4.74496 4.33579
848 1 9.14615 8.01402 18.8467
635 1 35.6126 -5.51537 4.57893
1538 1 8.5347 7.10663 19.3623
1153 1 9.73187 -4.74796 5.10279
549 1 -15.987 -6.14222 -9.39462
794 1 10.3988 -6.31337 17.4437
1891 1 -2.62171 7.82091 2.79094
1919 1 12.3354 -5.94977 3.96656
682 1 -1.11554 8.9618 3.95761
1389 1 -13.6925 23.1136 -9.67321
777 1 -0.528912 -5.32713 5.65493
443 1 12.277 7.39849 -8.25189
58 1 14.2397 -3.44516 -8.05803
1141 1 13.7213 9.30105 6.53209
1950 1 30.2805 -1.77146 19.4906
1850 1 14.4759 -3.88365 18.3454
76 1 15.4343 11.3923 5.50184
1463 1 18.9854 11.552 6.51677
2001 1 4.77011 -1.73525 7.42783
1453 1 -8.07215 10.6778 5.26997
1040 1 4.34724 -3.75908 6.45406
1720 1 4.39747 8.92464 5.41549
1804 1 6.98828 -3.12588 20.7299
1302 1 20.6642 8.29829 4.06126
1203 1 4.95335 9.12163 6.61183
458 1 -6.43768 10.7611 5.10029
170 1 8.39907 -4.5165 -8.65481
1749 1 11.6038 24.04 5.36883
1189 1 -6.1554 -3.76024 4.57587
2033 1 9.83601 9.56067 5.97985
1517 1 9.07842 8.79115 5.98168
1671 1 -16.3374 -2.59899 5.93061
1871 1 9.18762 -3.34973 20.0404
160 1 24.8987 7.89079 5.57786
1308 1 11.7534 9.45809 -9.2783
1926 1 -15.1828 8.34379 18.4084
2005 1 13.4566 -2.82117 5.34956
489 1 -1.0653 10.3411 5.17496
386 1 -14.0667 -4.25373 5.07766
1290 1 1.1315 -2.48419 6.88305
673 1 13.761 12.4174 5.90347
1284 1 1.52587 -3.10319 4.04849
283 1 28.2629 12.6201 6.68049
1632 1 16.9211 -1.9979 4.56918
1159 1 0.734776 -15.4309 5.26582
1210 1 14.2703 11.2135 5.96026
1944 1 15.7586 11.5296 6.50139
1429 1 4.57898 -1.56999 4.86697
1939 1 2.48409 -1.28896 18.0777
950 1 7.47659 11.1062 -7.68629
2002 1 -9.74379 10.9033 19.8151
1768 1 -6.66768 11.5837 17.8865
132 1 6.23095 10.7035 6.25204
28 1 8.12829 10.2047 5.41529
586 1 9.54808 10.9355 -9.19222
407 1 8.07464 10.9974 4.48978
932 1 -4.48436 9.99869 5.12497
1995 1 -3.01342 11.0989 7.10317
576 1 10.2289 -3.50553 5.2425
793 1 10.743 10.1549 6.13517
1626 1 11.4774 -16.9102 17.7707
595 1 25.1142 12.1442 19.2267
1701 1 -0.752799 12.6109 5.43465
368 1 13.0981 11.5647 6.23962
1584 1 14.8233 12.9914 4.67899
1317 1 2.1968 -0.297592 18.3343
195 1 -13.1658 0.296486 5.0646
796 1 2.45846 -13.2208 6.21257
854 1 3.97248 -1.88133 5.62002
98 1 -8.28152 -1.95377 5.44399
294 1 -8.54706 13.8439 17.5513
502 1 17.3126 11.8908 6.81537
153 1 6.1984 12.1153 -6.20129
528 1 6.38216 11.4313 5.50749
415 1 21.2183 13.3746 4.49221
1718 1 34.8844 -0.375374 19.3434
385 1 -7.3195 26.1881 5.03332
924 1 7.32978 -1.35819 5.08544
718 1 7.96198 14.1561 19.0924
231 1 -5.87672 25.9063 6.15837
2015 1 22.2532 12.9872 5.407
1961 1 8.63588 -0.947668 20.29
133 1 -3.84955 13.1596 4.86603
1736 1 8.78647 12.7864 17.3549
405 1 -4.30521 12.1365 -8.68243
239 1 9.92437 11.8235 4.13348
20 1 9.55395 -0.876524 5.90056
156 1 23.9278 11.2199 5.22659
1277 1 13.3435 12.7696 20.4654
2026 1 -2.33016 -0.631184 18.6761
1125 1 -0.20795 2.04809 19.8648
1788 1 14.9216 15.0514 7.65116
1140 1 0.277443 0.865284 6.13274
282 1 1.28546 -13.1159 -7.73
1510 1 17.2317 12.8165 6.01274
1327 1 1.12155 1.70051 6.55665
94 1 16.5704 26.7729 6.78745
1504 1 17.8981 0.325358 6.01285
1666 1 3.38252 27.7453 20.4334
1935 1 18.0852 13.9351 20.745
782 1 5.99836 0.585367 21.521
1092 1 -8.86208 1.29066 20.7051
425 1 4.80694 0.0234199 -5.54345
830 1 5.7555 -1.16753 6.24665
891 1 20.4402 13.8482 18.7289
657 1 -4.47703 13.7603 7.36769
869 1 -4.96173 -13.3096 20.0797
410 1 -4.29727 14.1934 8.41434
243 1 9.28316 2.09788 -7.162
452 1 11.0648 15.1184 6.0891
363 1 9.93021 -0.784583 6.89596
615 1 -2.53151 0.402671 5.53254
176 1 -3.26977 13.6221 7.69518
797 1 10.8606 1.88253 -5.92827
963 1 -2.10956 13.5176 21.3314
736 1 -1.08091 14.2196 -6.35004
520 1 1.19926 -11.1944 5.08583
1534 1 -0.885626 16.9284 6.1735
447 1 29.1343 2.15584 5.88141
1012 1 1.16959 16.3537 7.28931
1712 1 3.77307 14.8378 7.40555
494 1 3.30827 15.5055 -5.18963
1901 1 5.85353 15.1962 21.0319
1991 1 5.36543 16.1011 6.80236
1762 1 -8.20712 14.1146 -6.80005
691 1 6.27778 2.09801 6.31849
664 1 7.1294 28.0876 -7.71062
59 1 6.4264 17.2084 -5.47063
121 1 7.59574 3.21088 -6.98056
964 1 -7.11235 16.4553 7.49364
324 1 -4.13431 2.95717 -8.00952
1497 1 8.28683 16.0015 6.88486
575 1 10.2593 1.6632 20.6391
786 1 23.6601 -10.95 -6.51576
298 1 9.99906 1.53833 -7.85686
671 1 25.0801 1.94413 6.84522
1214 1 24.9235 29.7719 19.5176
616 1 11.0173 0.775767 7.22688
709 1 -1.95226 14.2733 -7.18989
1282 1 12.0578 -12.0447 -6.02065
1354 1 12.4333 1.52097 6.76067
1515 1 -1.0477 16.5292 5.20163
720 1 -1.47843 4.11329 5.58533
464 1 0.752047 16.2955 6.26988
1224 1 -0.715456 4.28249 6.57603
1078 1 14.968 17.4547 6.66425
154 1 16.4114 4.84585 -8.72967