ITEM: TIMESTEP
190000
ITEM: NUMBER OF ATOMS
2048
ITEM: BOX BOUNDS pp pp pp
0.0000000000000000e+00 1.3679807573413575e+01
0.0000000000000000e+00 1.3679807573413575e+01
0.0000000000000000e+00 1.3679807573413575e+01
ITEM: ATOMS id type xu yu zu
1028 1 -0.875892 -11.53 0.135231
999 1 -12.7518 15.8265 0.471091
327 1 0.87961 0.190489 2.03731
937 1 15.6124 1.40072 -0.533012
1138 1 3.61441 1.54604 -15.2064
1452 1 19.6539 15.1598 0.850566
1733 1 4.9658 28.554 0.48696
562 1 15.7818 -13.1535 0.245512
477 1 31.9985 28.7746 15.2064
138 1 6.55963 2.32193 -13.1207
8 1 -6.61444 1.4028 14.4518
1731 1 -5.85261 30.0992 12.9827
1015 1 -7.16303 14.5719 0.171415
4 1 -19.2377 15.8512 -10.8522
154 1 8.83156 14.7095 -13.259
1261 1 7.82494 14.2546 -0.724742
866 1 -4.43725 1.57038 2.11769
1459 1 -2.97754 1.98981 28.1097
1564 1 25.6054 14.3282 13.6222
1853 1 11.8224 13.5814 28.3804
1632 1 24.1608 -12.8831 1.12935
1932 1 26.1445 -14.872 14.7364
794 1 -0.916762 0.467909 28.5622
1345 1 0.609052 -12.6398 15.1815
296 1 -0.326847 1.7678 0.996643
195 1 0.81146 3.77582 14.5483
1508 1 -0.276879 15.2692 2.13254
1592 1 -12.0274 16.5917 14.5947
704 1 15.4048 2.57334 -0.555327
1918 1 2.79795 2.61358 1.51309
833 1 1.28934 -11.2958 -11.2353
819 1 -11.6275 1.75056 14.4397
1141 1 16.5757 16.2268 0.512199
238 1 5.74459 1.63133 13.4862
1058 1 -8.66966 17.4482 13.0741
1051 1 33.4314 4.39883 -0.993533
1724 1 19.7938 17.0986 12.9495
1900 1 -5.80351 15.5252 28.8719
609 1 6.84594 3.28967 -13.6829
955 1 -5.98228 2.36259 -13.2808
603 1 8.62036 2.38447 1.9552
1019 1 8.04831 1.33733 13.5507
1520 1 -4.9668 2.03519 28.2604
1706 1 -17.6472 16.1611 14.7543
1277 1 10.8569 3.18088 14.4568
667 1 -1.50898 15.1066 0.514038
431 1 -3.24975 -9.67618 -0.520101
878 1 11.0865 14.8144 13.9437
543 1 11.0997 -8.30351 14.7564
1804 1 11.4724 2.60144 15.1519
509 1 25.4197 15.4375 -14.1116
1634 1 -1.35144 15.4683 28.8207
1218 1 0.191425 17.5077 1.62715
309 1 -12.8977 -10.5666 13.6837
923 1 1.68423 18.544 28.1397
1654 1 2.89794 3.72949 1.96531
1151 1 29.3097 3.92154 1.33202
140 1 16.4715 31.9872 1.45807
598 1 15.588 3.72664 0.21309
688 1 3.84932 3.57453 0.860628
1903 1 -10.767 4.88841 25.6132
563 1 3.19582 -9.27593 -0.782027
1429 1 4.36235 2.45604 1.31416
998 1 -8.7982 17.1007 0.899158
959 1 6.81227 30.4451 1.16027
1026 1 -19.2991 4.82787 1.56116
765 1 7.20958 17.6302 28.0584
2036 1 -7.69136 17.5264 28.7953
695 1 20.4913 14.9381 3.57272
614 1 9.3335 3.26114 15.604
637 1 -5.39625 3.99063 0.830058
1863 1 23.3661 4.98886 26.7364
2048 1 9.58059 18.0401 14.1106
159 1 -1.20891 16.5146 14.8187
10 1 11.8198 3.64969 -12.3507
1823 1 12.1111 31.4711 2.27279
1882 1 27.1951 2.62316 15.3284
506 1 13.4412 16.8266 0.730712
1583 1 0.587845 32.5801 28.4284
1987 1 -12.5867 6.16465 14.4274
956 1 -0.00708991 19.1593 -0.499316
221 1 14.6249 17.9511 0.0144791
1027 1 0.931196 5.34681 -0.0259574
1545 1 0.914844 18.2705 15.3835
475 1 3.6004 4.63553 14.3175
520 1 -9.29564 -22.1199 -0.0940119
1810 1 4.73041 4.6115 14.6859
1100 1 5.07968 5.82583 14.3888
490 1 -8.3316 18.6001 -29.1054
20 1 5.91827 5.61839 13.7745
79 1 6.7962 5.41065 13.3348
655 1 8.12161 19.335 -12.7849
1832 1 -5.57526 3.08718 15.1311
1114 1 -6.63787 -9.79892 1.72998
404 1 6.84045 5.71227 14.378
423 1 7.95038 18.9778 -0.517403
2003 1 22.5141 5.22506 14.0146
1621 1 -3.75384 -8.20165 27.841
670 1 -5.32495 5.68911 -11.6084
36 1 9.87415 7.02868 13.7157
720 1 -0.913025 4.89251 15.9306
826 1 -0.766964 5.04017 0.581875
747 1 -0.288867 4.76006 1.47462
190 1 -1.57931 19.2435 14.5121
1977 1 11.7302 5.80602 29.2599
1162 1 14.0066 6.22448 15.2029
1014 1 -0.194241 5.8906 0.657714
513 1 15.5189 -18.9409 0.31593
1709 1 14.4483 -6.28515 -13.275
594 1 2.37924 -5.75846 15.2685
917 1 16.6834 -5.9253 0.600112
35 1 3.9563 -34.9666 0.271474
572 1 -9.73755 6.41163 -1.78229
705 1 3.9067 7.16301 13.9813
2012 1 31.4507 -4.88077 13.4034
132 1 19.0534 6.31052 15.3744
322 1 4.37387 -7.51296 -0.804383
1195 1 18.1728 7.93965 27.8023
241 1 -8.78938 6.84445 14.2589
439 1 -7.27329 6.33427 1.70273
112 1 -7.30575 20.9714 13.549
1106 1 -5.70231 6.57563 1.16132
1544 1 21.008 7.0807 14.2052
1803 1 7.96473 -7.47608 13.637
1348 1 9.30031 -6.08805 14.451
929 1 -5.36275 7.24082 0.356044
1525 1 11.2266 6.46317 14.6578
366 1 -2.72678 7.76749 0.71911
1969 1 10.4424 19.7025 15.3286
783 1 -4.46135 -20.754 -12.726
7 1 -2.19308 21.0129 1.50949
143 1 -1.23311 -19.5753 -12.3693
1053 1 26.7421 -7.94892 1.59134
868 1 -1.18951 6.6194 28.0147
668 1 13.1433 21.5308 0.497254
612 1 -14.1147 8.07624 -0.67865
1223 1 2.78312 -4.99336 -0.213441
1207 1 2.15365 -4.02798 27.9376
1042 1 15.661 -3.75603 12.975
313 1 30.7071 22.5281 0.599045
947 1 18.1673 8.90299 15.8782
58 1 18.9675 -3.54941 0.678833
1897 1 6.02676 -18.153 -12.9345
1705 1 5.47849 21.4 14.189
22 1 -8.16317 -20.0915 15.042
93 1 6.05588 21.947 -13.7562
1575 1 -20.7291 -5.8511 14.4959
104 1 5.16616 -4.51683 17.8189
1768 1 -6.47325 8.45489 15.3313
470 1 8.26736 -3.42193 1.25473
374 1 7.17536 9.43981 1.0092
760 1 6.94237 8.68218 13.9406
1594 1 9.06991 -3.46386 0.449708
1681 1 -33.2998 8.18854 14.5486
1702 1 -16.351 -4.72402 28.8783
1391 1 10.1086 8.35271 -12.8815
385 1 -2.22831 35.1345 12.9237
270 1 12.2087 -4.99627 -0.534956
171 1 -3.03177 21.5783 15.4569
1047 1 25.2634 -4.1356 14.521
1725 1 14.0823 -5.20649 0.0727554
1289 1 -0.874751 -4.90819 14.4175
646 1 -1.06284 9.58769 13.7487
1415 1 2.20978 10.7128 1.10875
2 1 3.04281 23.3938 1.17169
483 1 4.7453 9.64997 -0.0546423
743 1 -23.6424 24.9658 1.21022
253 1 -9.16079 8.86168 0.886521
510 1 6.19284 10.0433 1.33908
1098 1 20.0155 8.91784 2.13589
1703 1 -5.59638 -2.21253 -1.02044
558 1 7.15415 10.7741 14.9699
1871 1 6.09498 -2.27035 16.1325
2001 1 8.15475 -18.0644 0.479246
679 1 10.2089 23.048 0.854804
489 1 -2.51591 9.95485 -0.040773
2033 1 12.1667 24.1377 0.037125
396 1 11.5248 24.2879 -12.8199
771 1 12.6555 -3.97729 14.8626
245 1 0.883881 23.6311 0.978119
1407 1 0.929245 -1.46491 27.5298
671 1 27.6579 9.6139 13.2728
891 1 28.6998 10.4399 13.9037
1605 1 16.94 24.4344 -13.0952
656 1 17.854 24.7538 27.5911
569 1 18.5185 11.4164 1.35471
1076 1 -9.82531 -1.39177 0.498163
384 1 4.47239 12.7241 1.38169
1785 1 5.8031 10.9814 15.1135
1901 1 5.14853 11.2916 27.6703
515 1 6.55571 -0.884283 14.9109
457 1 -8.58645 25.2508 2.45114
1979 1 7.10788 -1.97246 15.313
1998 1 7.53846 -1.44888 13.1985
1137 1 8.769 25.5695 11.875
442 1 50.4298 -1.49911 0.475373
1855 1 21.802 11.4371 1.14552
1103 1 22.1884 -1.88137 0.155325
338 1 10.4584 11.7946 14.3171
1723 1 10.5461 12.4054 13.0698
272 1 -3.57665 -3.07129 0.605305
1738 1 -2.38374 -2.15755 15.1983
660 1 13.159 -1.96382 1.20666
2014 1 13.8266 24.9321 13.7716
1633 1 -0.795416 -16.5615 14.3871
186 1 27.3291 -13.0063 0.722744
876 1 13.6975 40.9008 1.34617
1174 1 15.5365 -0.493597 13.5308
795 1 2.10551 -13.4632 2.03578
1889 1 16.3516 11.7655 14.807
412 1 30.1536 -0.987141 -13.2415
1680 1 -10.3747 13.8546 13.3858
300 1 -10.2258 13.4131 -12.9664
1916 1 4.45998 -0.592056 27.787
525 1 4.03895 14.3346 0.439012
941 1 6.27441 0.124685 15.3309
1811 1 19.0557 -1.37223 13.6734
1006 1 -21.4625 25.5928 28.3077
590 1 7.91452 12.9732 -12.5448
67 1 9.48575 13.8128 14.1776
1837 1 -5.34548 -13.5277 27.7791
297 1 9.98149 -1.1999 1.55436
881 1 9.25607 0.796583 1.41426
2016 1 22.2249 13.6393 29.1042
1469 1 -2.47913 12.8595 2.34217
1096 1 10.6108 -0.140934 -12.0748
441 1 -1.71459 12.8071 -13.4428
1443 1 11.3193 26.4101 14.9901
1814 1 -0.726996 14.256 12.9732
485 1 0.172973 -0.792029 13.2829
1152 1 12.5401 13.3783 17.3555
323 1 0.832291 14.9805 16.0945
1156 1 -11.9573 28.1383 -12.3847
786 1 29.811 -13.7176 3.05893
742 1 3.84266 14.445 -11.8665
1185 1 -9.07307 0.756709 2.43995
498 1 2.99344 14.5774 -12.9126
427 1 -8.38096 -13.9173 15.038
1299 1 -8.13214 0.913001 15.3935
1701 1 7.13778 15.4338 2.40183
1189 1 -7.27253 -11.47 15.2672
1612 1 7.90076 1.27601 16.956
343 1 21.5482 14.5612 14.7303
719 1 7.10066 14.35 2.62717
429 1 22.6449 1.49762 3.48316
452 1 9.59926 14.9985 4.33616
1778 1 10.3151 28.4278 2.25015
2008 1 12.8399 -0.353321 0.521441
854 1 -1.93897 -12.8036 1.38068
804 1 -1.30234 -0.22589 15.6736
718 1 0.0453874 14.8517 16.8126
732 1 13.5332 14.7812 18.4699
1660 1 0.845728 15.7928 1.57234
1209 1 2.12808 2.25418 3.52956
988 1 -14.5925 1.70226 3.03465
1421 1 1.87443 15.0205 3.93772
1417 1 15.6581 -12.36 16.4162
574 1 5.34723 1.69892 2.27325
55 1 31.5593 15.9668 -11.3118
1394 1 2.72655 -12.5301 29.2038
254 1 16.6316 15.8304 -11.2791
1197 1 4.73513 31.1188 4.10665
1000 1 5.18564 14.7509 16.8788
981 1 31.9104 17.7743 -10.7093
1879 1 19.266 2.79585 13.8074
1430 1 20.9242 2.05426 -9.61225
1835 1 -7.23339 2.44181 3.29719
791 1 9.27481 16.1249 30.0455
582 1 -19.1323 2.35672 -9.81697
1262 1 -3.13318 3.26009 15.8404
83 1 9.84836 15.8492 3.6285
551 1 -3.39452 -11.4241 1.99841
871 1 -2.20647 16.1042 0.293734
764 1 -1.23422 28.3524 16.0281
597 1 9.89268 3.30255 2.92014
446 1 11.5294 2.70325 -11.0846
1041 1 -13.4365 -38.903 2.8555
1193 1 27.1497 0.371335 16.034
1486 1 -0.944653 2.47904 17.3033
386 1 -12.5674 -10.275 15.7335
1056 1 2.11026 3.15928 16.2602
1567 1 30.8072 3.03906 -11.2725
1186 1 4.64839 3.0778 2.76333
1331 1 -10.151 -9.55375 2.95641
1214 1 32.4507 31.6431 -11.81
727 1 5.38285 -11.3462 1.16859
1409 1 -8.57783 5.29289 29.035
1616 1 6.10897 4.61009 2.12678
1687 1 -6.4753 3.89937 43.7926
1735 1 -7.26673 3.09 2.49036
235 1 -7.96877 17.6426 -13.3602
1869 1 7.74568 19.1884 18.3167
472 1 7.35397 2.77564 2.01885
205 1 -5.46032 3.84486 2.13815
816 1 8.8971 16.7491 3.34871
377 1 37.4136 4.24329 2.29575
1938 1 -3.39527 18.5653 14.9142
1659 1 11.1501 4.17486 1.93808
199 1 -3.0699 -8.56521 -10.4229
92 1 11.0908 17.5034 -10.7664
1419 1 12.5399 16.2183 15.9097
1260 1 -0.0425365 16.9199 16.1778
611 1 -0.857431 17.4616 1.58762
244 1 -14.9522 3.37137 3.00395
1423 1 -13.6558 3.50259 3.52421
1293 1 14.9336 30.2667 3.34338
1448 1 13.9819 -8.28535 2.31943
1150 1 0.521063 17.8327 -11.0665
1611 1 0.0168893 -8.51129 17.0778
321 1 15.5326 -8.43587 -11.8813
645 1 16.0716 -21.6758 -12.6331
1665 1 16.2363 7.17087 3.04294
554 1 16.8173 -8.50925 2.38414
248 1 17.5086 17.9384 1.74346
583 1 1.70401 4.26689 2.25797
1790 1 3.32314 5.9586 1.69313
1101 1 17.9251 5.00295 16.266
432 1 17.6558 19.1601 1.15035
1300 1 2.52376 -7.66465 16.1617
1337 1 18.0588 5.9371 2.14911
411 1 18.8296 -9.0223 -0.167235
921 1 6.38464 4.95446 3.10591
1456 1 5.20425 18.8962 16.4441
723 1 6.00156 5.35581 1.14981
207 1 20.0285 -7.79877 16.2911
1118 1 6.77952 5.26482 4.18764
991 1 9.11178 18.0302 -12.1332
890 1 -4.58486 -9.73639 2.97317
1517 1 22.8601 5.47519 15.0948
134 1 -3.44939 19.6194 -10.523
803 1 -4.19555 -8.56424 2.30079
260 1 -2.41968 -7.64847 3.125
1198 1 -3.03728 18.8915 2.20511
402 1 26.1777 5.75603 16.7992
1881 1 13.1628 17.8574 16.4583
1628 1 -1.00633 5.16532 4.19798
287 1 28.6274 5.94373 2.29516
1732 1 0.498697 34.4638 2.63351
2043 1 16.8543 6.647 14.5537
94 1 15.9644 20.3359 1.46082
1696 1 28.6589 7.03022 1.41757
1851 1 3.9838 -5.71888 2.332
212 1 4.82485 -5.79692 -10.579
1786 1 18.4134 21.6656 15.316
1805 1 33.7493 7.64923 1.83312
434 1 7.3696 5.89681 15.3095
522 1 7.28282 20.9904 15.2699
976 1 -6.20477 7.41714 -10.2171
1420 1 21.6895 -20.7203 16.1095
617 1 8.24494 7.74311 -11.5596
1406 1 23.3571 19.8352 2.31561
13 1 -3.42025 7.03687 1.07329
1449 1 -3.90295 20.8182 3.12644
17 1 -16.3884 -6.76208 16.0351
1249 1 11.7226 4.91942 16.1845
787 1 -0.278506 -7.45221 2.59201
1631 1 25.7009 6.64752 -10.9962
1952 1 13.2591 6.88671 28.5839
1325 1 15.8174 9.85313 2.11557
996 1 1.19425 21.8495 14.7364
694 1 1.34763 7.76653 2.11839
1609 1 3.65789 9.13009 16.4719
1065 1 1.65967 9.18522 1.39693
208 1 3.78311 -5.79816 1.2596
151 1 18.8993 9.48223 -12.1446
944 1 4.36236 9.96429 2.63784
1352 1 -9.53429 20.2276 1.27749
1547 1 18.2083 -19.421 17.8726
340 1 3.73323 7.07648 3.14716
1180 1 20.2328 7.55674 3.90262
1726 1 -8.00551 35.7555 28.6396
1102 1 5.36808 9.46491 16.3153
403 1 6.24462 23.6075 16.5893
1200 1 6.67225 -2.68815 17.0199
433 1 -8.30298 22.0924 2.25207
1320 1 -6.59103 9.13411 2.9237
1148 1 -4.91309 20.4772 1.76277
1664 1 23.0347 21.7981 2.53372
1088 1 -3.96371 23.7258 1.39957
809 1 -17.7399 -6.42059 1.95097
908 1 9.05531 9.05831 1.00175
1230 1 -2.64427 7.28907 17.0056
942 1 13.415 -6.0831 2.18553
589 1 -1.74334 22.0919 -13.1466
1045 1 12.3219 6.70917 1.62148
54 1 11.7787 7.77826 -10.9266
690 1 13.7593 9.18034 -12.6132
883 1 13.8515 -5.66034 14.8649
599 1 15.2761 23.7537 2.97648
2047 1 17.0814 22.4463 29.1077
119 1 1.53382 22.5469 17.2268
1349 1 -10.3568 12.6133 15.133
849 1 18.3268 -16.9175 1.44803
1669 1 -9.79519 9.85799 1.80041
1154 1 4.54364 23.8827 19.188
416 1 6.56064 24.3344 2.08009
1465 1 5.41526 -3.13606 16.1317
1878 1 17.967 -4.73792 31.9709
963 1 -7.28035 8.83336 31.3182
328 1 8.84396 -2.66686 15.5269
613 1 7.38291 -3.86248 -11.6828
507 1 8.11658 8.93776 1.41637
217 1 9.24197 24.9489 0.789511
924 1 10.1663 -2.43897 15.2719
1922 1 -4.7392 8.20163 15.1935
1133 1 -15.1361 -16.2408 15.2681
77 1 10.5028 -4.99812 2.34985
419 1 13.2585 8.62149 1.85156
1340 1 -1.47789 22.4265 28.9061
1112 1 0.306542 -2.7392 1.05995
53 1 27.2302 10.2245 15.3173
1321 1 -11.765 11.6228 15.5876
914 1 -0.225451 -17.2705 -13.2846
326 1 -15.1923 12.3553 2.92352
960 1 14.9458 38.7101 28.4306
1305 1 -12.1333 -1.89061 3.77539
1771 1 16.6385 10.7595 -11.783
1777 1 15.3383 26.0666 14.681
1414 1 2.76296 12.0077 3.84729
1661 1 4.18317 11.0863 15.8284
336 1 17.8217 25.9071 15.9885
1534 1 -6.86614 11.7776 4.24199
1945 1 17.3779 0.670633 3.83599
1972 1 35.193 -2.81185 16.1188
233 1 8.44877 11.9083 -11.4958
1361 1 7.3341 -14.7842 2.1862
864 1 8.51209 -1.51997 3.42075
792 1 24.8463 -16.6283 15.8552
1539 1 9.46586 -1.73297 2.48501
1931 1 -17.5417 8.79062 15.317
846 1 22.5966 -1.11207 1.40737
1117 1 9.74435 11.6527 13.206
1821 1 -1.56071 -3.02046 29.967
206 1 -0.519269 12.6833 15.3712
496 1 13.9431 12.8918 16.0303
872 1 -1.58123 -15.2877 1.95995
1753 1 1.13535 14.4729 0.399459
259 1 1.37624 40.8438 -12.5544
703 1 14.6541 -1.67376 2.44427
1371 1 1.39304 -14.4546 -11.0722
1574 1 2.2629 -0.873952 29.335
1216 1 2.39863 -0.171631 0.989066
855 1 3.28527 -1.91273 15.7983
231 1 3.16105 27.3543 15.5972
1275 1 3.35846 14.0963 16.5446
1649 1 16.8966 12.8816 29.8707
1332 1 19.0515 0.0669232 16.036
1256 1 -8.35058 -1.16991 2.10707
153 1 4.33375 13.4378 -11.5236
1302 1 19.3227 13.1764 3.23917
564 1 -8.22328 10.9882 3.68762
1328 1 6.3362 12.3247 2.19594
1802 1 7.44166 13.6002 15.643
111 1 8.25295 14.6872 -11.5498
784 1 8.08876 0.192609 -24.5642
162 1 -5.33969 12.8461 -11.1787
595 1 36.4448 14.2333 16.3698
25 1 -4.01527 -13.9337 -11.6253
440 1 23.8547 -0.86861 16.4445
1860 1 10.6835 12.0102 15.8931
865 1 -5.00271 14.2069 17.4334
898 1 11.4378 11.6221 16.4788
1622 1 -2.34554 14.1641 15.885
1675 1 10.9305 12.3824 4.47723
624 1 -1.68576 -0.165767 -10.7947
1960 1 0.291184 13.5733 3.24291
966 1 11.1983 12.5786 -10.2466
1883 1 12.452 11.3738 16.9836
320 1 -1.21773 0.470021 4.49416
938 1 14.9271 13.2978 17.3719
1584 1 14.6531 14.336 4.04562
1597 1 13.5375 0.39104 4.00872
1971 1 1.27238 14.2323 -10.7272
1713 1 17.4505 1.49921 -24.2537
101 1 4.07002 0.801737 -8.88228
1736 1 4.49751 27.2278 18.5658
1873 1 4.64528 1.57663 17.7577
230 1 20.1773 13.3844 16.3506
1242 1 18.7788 0.591884 17.7925
1558 1 19.8351 1.26909 16.3329
1519 1 19.8902 14.7673 31.7699
1290 1 -7.66342 0.501187 3.51146
1770 1 7.6509 0.972459 4.20949
995 1 -20.4386 0.38151 18.4307
1017 1 8.96246 27.1014 -9.3542
1461 1 -3.88385 0.146098 17.0564
1613 1 23.4205 27.7652 18.9596
673 1 10.4487 13.246 3.87833
1232 1 10.8169 27.4872 16.5357
2021 1 -16.5331 16.4288 16.9653
351 1 11.8349 1.75837 17.1494
1673 1 2.15591 -0.0374019 6.01662
1146 1 -1.71905 15.0836 18.2125
1143 1 14.2115 16.044 -8.92494
1322 1 -12.7162 1.5472 17.1146
700 1 16.4518 2.80089 4.29614
1170 1 16.5652 1.25267 3.47791
1893 1 4.80796 2.19226 16.9736
691 1 3.58849 3.53454 4.38881
1829 1 3.55646 1.75357 -9.43522
745 1 -9.40488 3.32117 15.4399
74 1 -8.1607 16.3899 15.8995
530 1 19.3735 1.81979 17.4326
487 1 -5.03128 1.80099 -9.0706
1025 1 -4.19794 16.1565 5.0239
560 1 9.73954 28.9064 19.0808
2018 1 10.5323 15.3405 16.7361
1023 1 9.95231 17.6587 -7.917
1020 1 9.23449 4.777 5.20545
827 1 -0.841089 1.90207 18.4783
1570 1 -2.73771 15.4473 4.10999
87 1 -2.05104 14.4415 16.9027
931 1 13.3741 16.3393 5.30512
744 1 -2.33706 1.67298 16.0674
927 1 0.000265533 1.99122 17.5496
1904 1 -0.952337 14.4138 17.0583
1848 1 12.1085 17.1868 5.86694
356 1 15.3357 17.5571 16.9759
378 1 15.4875 -10.1113 4.41963
1876 1 14.4107 17.0178 5.59092
1548 1 -11.1332 -23.7864 -9.99005
2023 1 -12.1117 2.32511 -9.03901
773 1 2.13592 4.60964 3.95415
1941 1 3.18609 16.1249 3.40795
1822 1 -10.4782 4.316 17.6307
658 1 4.39524 2.6791 -9.60068
663 1 20.0242 3.82713 17.0288
445 1 4.20865 4.82417 -10.1419
820 1 3.81497 3.20396 17.1055
1171 1 20.2934 2.01234 4.99772
1514 1 8.3823 2.75182 18.8352
1379 1 7.20346 18.6742 2.20626
242 1 7.43937 2.87576 -10.5228
139 1 7.04906 17.8689 -9.73092
1288 1 8.65553 16.9118 18.0005
1540 1 -5.5663 4.5183 18.0968
1958 1 -5.49875 17.5397 3.58512
1067 1 -4.60441 18.074 4.20746
1255 1 -17.2727 4.30338 17.1523
1955 1 -3.98466 3.20207 17.8
2026 1 -2.7377 4.35351 18.8145
542 1 -16.6437 3.6455 3.95372
100 1 -1.91984 2.80612 -9.91794
772 1 -2.60498 3.74447 19.5251
239 1 -3.29856 16.5502 5.53641
2034 1 12.8353 30.6658 4.35858
653 1 -12.9244 3.2891 -9.41497
1607 1 14.4867 4.23232 31.145
1177 1 15.2193 -6.97852 17.4953
825 1 3.05991 4.6508 4.85261
284 1 15.8931 -22.3254 16.4063
1405 1 16.3608 33.0822 -9.41891
1993 1 -9.30212 19.6241 3.45171
329 1 1.98154 19.4485 3.37815
781 1 19.1603 -7.79649 4.08753
1296 1 5.68168 6.29573 18.638
362 1 5.37152 -9.23029 3.58474
934 1 6.52902 6.90459 5.25146
1856 1 5.48701 -9.24091 6.028
797 1 8.45791 5.86956 -24.2992
1324 1 -5.74878 20.2256 -9.9007
1577 1 -4.35403 5.33564 17.0409
1253 1 23.3737 18.682 6.3982
1942 1 9.88734 17.631 4.75542
847 1 -15.4887 -8.64715 4.93549
731 1 11.6365 -8.48782 3.6057
815 1 -2.45643 5.75596 4.41678
1884 1 12.0404 17.7277 18.3366
1043 1 -0.11521 -9.38573 4.15136
1721 1 25.6564 4.18875 17.153
1472 1 1.77479 7.99428 16.7751
56 1 1.1839 18.7248 -10.6375
1475 1 -12.9266 6.01267 3.27174
1282 1 2.93369 -19.1972 -11.0047
1757 1 3.26852 7.11774 -11.791
949 1 2.98593 5.23228 3.40493
1761 1 4.77813 6.89451 4.16605
81 1 17.2815 -5.36595 3.77545
246 1 3.59743 6.16932 -24.5747
1301 1 5.58676 -6.39175 2.37513
1075 1 18.924 19.9393 2.78804
635 1 31.8846 6.96431 2.49513
274 1 -7.19293 6.30993 -23.8235
811 1 20.282 -20.1575 2.90147
1235 1 6.87789 4.78167 1.17031
314 1 8.62508 4.8038 -24.636
264 1 7.4265 19.6331 2.96035
42 1 -20.7446 8.15529 2.97358
508 1 8.7835 7.13006 17.6709
935 1 10.6177 4.70686 4.24552
1830 1 10.5309 -7.18298 17.5267
1129 1 9.36702 -7.34003 -9.85154
730 1 25.2538 36.4771 -10.0186
1365 1 11.9413 6.85081 3.91974
222 1 -1.61218 8.06516 3.72512
2035 1 -0.324318 6.55157 4.76886
1586 1 -14.1667 6.21498 17.4984
252 1 12.2362 6.05699 4.55853
672 1 13.8914 21.8142 30.5239
1847 1 16.1103 9.07511 16.6147
1366 1 16.3641 10.1423 3.06644
316 1 15.7904 -6.12908 -23.4648
1188 1 -12.0684 -6.89597 16.5237
561 1 4.56557 8.90277 3.35656
943 1 -8.07782 -6.50769 -10.31
1689 1 32.856 -5.25548 17.2093
1872 1 -7.65315 9.30947 4.82695
397 1 7.35058 7.2335 18.226
1380 1 -5.02735 -4.98917 3.2034
648 1 22.5972 -3.54111 4.98239
1959 1 -5.70831 22.5788 2.4157
144 1 -18.2771 9.68802 3.31977
465 1 9.58915 21.8331 3.54344
1341 1 22.1565 7.605 3.07579
88 1 12.7367 8.5673 2.76107
1089 1 12.6376 8.91545 31.2156
304 1 -1.86285 9.75521 15.4849
1408 1 12.6645 7.37974 16.946
305 1 27.9865 -3.75371 -10.7978
766 1 0.390359 10.8927 2.29126
168 1 13.6081 -4.59719 2.88796
733 1 15.8856 11.5386 -9.00688
714 1 -11.4608 11.464 16.6009
1573 1 14.3001 -5.12834 -11.7362
1422 1 2.44943 8.5993 17.7597
1093 1 17.4014 -2.52757 17.6846
607 1 29.6255 9.66547 3.99773
278 1 3.24855 -31.6636 3.70326
166 1 -7.55992 -3.35708 17.6988
1646 1 5.70861 -2.70889 5.63169
68 1 -10.5357 11.1239 2.91827
1507 1 6.98535 10.6331 18.1706
405 1 7.20357 23.1728 -9.82798
627 1 9.22442 10.2205 2.46146
954 1 9.43744 9.12932 -8.54785
1327 1 -3.89402 8.99297 2.99939
1618 1 -4.76234 9.12383 29.4816
1044 1 -4.1924 10.5714 17.6141
481 1 -1.6223 8.62675 -8.99933
1192 1 23.9534 9.77598 16.0621
142 1 10.7894 10.151 15.0204
867 1 11.4036 9.42629 16.4334
1363 1 -15.3581 -3.10815 3.71792
932 1 0.879518 9.90945 1.9394
1693 1 26.527 9.45769 15.8293
1063 1 14.0802 8.84964 -9.66241
69 1 0.189621 -2.2457 -10.0922
1401 1 16.0229 -2.71527 17.4255
1862 1 15.0596 24.4118 15.5985
1278 1 3.71521 25.7362 3.28086
1690 1 2.2346 -0.760721 4.41379
1744 1 -8.73288 12.0959 17.2191
306 1 4.38442 -16.3912 17.0069
1054 1 18.7696 -3.58849 3.32272
43 1 18.3513 -2.87069 4.43973
1055 1 4.2783 -3.75782 -9.67996
1801 1 6.10418 13.2986 4.8599
1313 1 -6.16098 26.8031 -10.6175
198 1 -5.85739 24.8733 3.88974
1179 1 10.0013 -2.57269 -11.1045
1877 1 -4.94364 24.4924 19.4756
64 1 22.806 12.3442 4.46733
777 1 10.2111 -3.39682 -9.04799
1796 1 -17.8889 11.5799 5.05914
1124 1 -0.304092 9.529 31.2701
1825 1 -15.797 -1.28769 5.76693
373 1 10.4267 11.3027 4.69257
650 1 -2.5875 10.0692 -9.52607
1820 1 1.23092 -2.64245 4.33426
636 1 -0.257362 11.9729 16.1196
1476 1 0.84537 12.3798 3.35521
1967 1 28.3404 10.863 3.27768
702 1 28.7933 26.8725 -8.39521
1543 1 -11.7945 0.394046 4.9518
940 1 0.77607 0.291358 18.6996
848 1 -11.3124 -14.8932 30.3044
1372 1 -11.476 14.0152 17.6561
1913 1 4.4941 12.4316 19.2779
1259 1 3.17306 13.5327 18.1131
519 1 4.71033 0.0428509 17.0931
886 1 3.37079 13.0905 -10.2131
565 1 4.74137 12.7651 4.26708
1208 1 20.9117 12.7626 18.4141
698 1 49.7911 24.7821 2.99524
1024 1 20.7515 13.94 3.5881
604 1 22.4772 14.6048 18.7512
987 1 7.93751 13.2247 -9.7451
1789 1 -5.56352 13.0944 18.8833
873 1 10.4487 25.606 -10.4441
382 1 10.088 -1.20774 18.6451
1165 1 11.6053 -0.594734 -8.63629
722 1 25.5292 12.6645 17.8543
1506 1 -0.260863 12.5623 30.7244
317 1 12.5756 -12.6101 5.44803
1614 1 14.8158 0.776202 33.3328
661 1 3.13557 28.2886 6.51748
73 1 15.9182 28.6387 -8.25654
172 1 2.95158 14.5828 4.57577
181 1 3.93504 27.286 -7.82239
683 1 17.0471 -1.00436 5.06931
90 1 5.36621 -13.9019 -7.99852
1663 1 19.5164 1.40933 -8.10878
285 1 19.9549 -13.3625 5.70747
1854 1 32.4123 -26.4963 -8.47852
602 1 7.09229 1.07772 6.08029
1046 1 4.87267 0.736813 6.36086
1458 1 8.07979 14.8768 19.9235
799 1 -4.73688 -0.100547 -8.0117
553 1 10.6839 -13.9774 5.04913
575 1 10.6971 0.750811 3.99223
779 1 9.14081 -1.13241 -21.7033
158 1 -1.99547 1.25916 6.00262
1276 1 -3.26135 -12.6827 -7.78796
1184 1 11.5472 -0.145748 -9.83983
1615 1 -0.172066 -0.0784847 18.7831
1382 1 -2.24338 0.554063 -8.55897
1294 1 -12.547 1.70413 -6.98327
1781 1 2.48206 15.5443 -9.09213
1229 1 14.0696 0.840074 6.77615
45 1 14.6216 14.9845 -8.51363
524 1 -10.0203 -11.073 4.94798
1524 1 16.5032 15.9981 -8.15783
677 1 15.118 29.4287 19.3577
188 1 5.37804 16.0429 18.3598
1244 1 4.65649 15.6781 5.33266
523 1 18.1744 16.8572 32.4445
232 1 5.63503 16.5574 -9.99372
23 1 7.33529 2.80483 -8.17623
1606 1 -5.87205 15.4941 18.9417
216 1 8.84318 15.6268 5.67664
294 1 -6.42715 14.1899 20.5444
527 1 23.0575 -10.641 6.05847
2032 1 22.3588 15.1252 7.21813
1265 1 9.32784 14.8284 6.38461
302 1 -2.52231 16.4312 -5.92397
1079 1 9.98891 -12.0586 -6.32397
707 1 9.80473 2.15799 -7.42237
1444 1 -1.09317 15.7441 19.6761
1791 1 27.7457 29.2933 5.90233
355 1 -0.418562 2.1251 6.78051
1201 1 12.7413 17.4521 -7.04545
1902 1 15.27 4.66474 6.57614
1329 1 0.947164 4.26309 4.85599
1286 1 14.0701 -10.8623 20.1961
1400 1 1.83061 3.02541 19.0849
1062 1 2.90038 3.62799 5.21778
295 1 -8.92507 17.2775 6.08318
337 1 4.30588 17.7668 -8.73552
1551 1 5.37502 3.88988 5.07157
1513 1 5.46226 3.64231 30.0239
21 1 -7.7291 -10.0498 -7.05551
178 1 19.8203 2.3808 -7.80209
9 1 19.7697 16.7826 5.03665
1094 1 7.29567 16.8975 4.42437
1691 1 -5.75157 5.06895 3.43794
1885 1 7.11651 -8.9685 5.22318
66 1 8.81165 -23.688 -8.38547
1748 1 8.81893 17.7412 6.42628
123 1 10.4577 -10.508 6.48016
1440 1 8.46187 5.66361 5.47385
1538 1 -1.95131 17.845 34.3618
1317 1 13.7352 3.77164 5.02916
1166 1 13.7864 31.4589 6.12887
265 1 -12.0456 -8.11993 6.10928
1988 1 14.9731 5.23545 17.7622
1964 1 1.60128 5.95571 18.4193
27 1 1.03534 -9.37791 -7.84471
712 1 2.6293 -8.22117 5.35158
1629 1 18.0452 4.50478 20.0581
194 1 -10.3685 -8.71351 19.7135
1764 1 -8.71698 17.6954 -20.3048
1887 1 18.3689 6.14064 4.93066
512 1 19.6316 17.5391 4.26264
1167 1 -8.78113 5.14481 4.36557
121 1 7.07193 19.9582 4.39747
476 1 -6.45151 5.40105 -7.47963
762 1 21.3374 31.0816 -8.29726
177 1 -4.86714 5.6122 4.22938
1907 1 21.7496 33.925 -8.79717
398 1 -5.47883 18.2249 -8.04603
174 1 9.47344 19.4763 18.9088
2040 1 10.2444 5.07647 5.357
1173 1 -4.06631 3.61374 6.84895
674 1 10.837 19.1166 6.42478
1989 1 -29.5296 2.37398 5.93826
528 1 12.5053 19.4582 5.94819
790 1 -2.01249 4.77874 -7.63028
992 1 11.0806 4.82892 20.9932
118 1 26.5391 -8.37184 5.17104
1845 1 0.0406343 5.29929 4.3735
82 1 -0.55196 4.9675 6.25943
1227 1 -10.2395 6.5537 17.686
1739 1 14.6609 -6.22145 3.54352
372 1 -0.0753177 7.13124 -10.2346
721 1 14.9618 20.9522 4.73637
96 1 16.0468 -6.56862 18.5767
456 1 4.03428 -6.77266 4.93325
290 1 5.09234 7.21959 5.22314
526 1 3.80737 5.47587 17.9323
478 1 19.5425 18.5336 4.97665
2019 1 -9.46485 18.7208 18.9909
775 1 7.10271 7.94099 19.355
1219 1 6.50395 -5.30835 4.85652
631 1 6.71333 19.3338 -8.44224
789 1 8.17209 -19.7176 5.04393
1934 1 -6.09568 -5.02369 -8.86291
894 1 9.7723 6.67751 4.65559
984 1 -16.9906 19.784 -7.98105
1161 1 -15.8581 6.25494 20.1455
1125 1 11.5047 -6.62271 19.5546
1427 1 -3.59237 5.62225 4.33106
1962 1 12.6437 7.03606 5.33237
1623 1 24.4104 8.31709 17.1196
905 1 0.493143 6.6289 17.8222
1930 1 -0.305148 7.65609 5.55727
267 1 -0.147807 -7.72536 5.76662
11 1 0.210415 -6.12472 4.55711
1808 1 13.81 -16.9114 17.9263
1451 1 1.08457 -3.73459 4.02148
796 1 -10.2044 -19.4388 4.84114
1454 1 15.8935 21.7502 6.12173
1033 1 -9.33989 21.8127 -8.3486
1522 1 15.5407 35.4997 5.12165
1273 1 2.7972 -6.35181 5.79564
1920 1 19.0549 23.6993 18.6499
839 1 3.71175 10.2678 33.4088
182 1 19.1738 -19.6375 -22.9743
531 1 5.74016 6.75624 6.0539
1939 1 8.0585 -5.57782 17.6083
994 1 5.86813 -6.06668 5.73181
1813 1 -7.81786 -3.75057 5.99983
204 1 -8.20187 8.36731 -8.46501
1755 1 7.19195 36.7125 5.50347
1492 1 33.823 -30.9567 18.7617
371 1 -5.7049 8.24075 6.16317
1034 1 -4.71929 -6.78979 19.2481
1202 1 23.9925 7.51841 17.7845
1807 1 8.01964 -6.6234 19.6939
76 1 8.97515 22.2078 4.26849
1066 1 23.6122 -18.3817 4.11056
757 1 11.2646 7.97676 -9.22182
358 1 -0.885024 -5.88527 18.0646
1228 1 11.3143 6.74255 4.81325
458 1 -2.77566 37.1449 6.4607
533 1 1.24332 8.31891 -9.32135
279 1 27.3919 -5.22022 18.5788
1788 1 14.8984 22.7282 2.59648
1369 1 2.06668 10.4403 5.31874
1886 1 13.5362 24.3138 18.8711
570 1 28.2498 10.3495 5.24074
806 1 2.71292 10.4457 -9.24383
776 1 3.04132 9.22071 18.3923
1383 1 4.29382 11.1848 33.1595
347 1 19.9645 8.88296 5.65499
1815 1 19.742 -2.52427 18.3307
758 1 8.19053 -3.40581 4.09843
1839 1 8.2509 -18.0893 18.0816
1095 1 8.72304 8.43218 5.38646
1116 1 -3.46783 -3.78235 3.60023
289 1 23.9546 -5.48211 -22.4352
2041 1 24.095 9.60172 19.1266
1587 1 11.1926 -4.50969 18.5471
1838 1 12.6679 8.68491 -8.09074
52 1 10.8248 10.6091 5.36442
1084 1 11.7365 -5.65034 5.55589
716 1 -1.42556 9.69647 3.17909
587 1 -0.519287 -4.18454 18.6352
907 1 13.9955 -1.9539 4.56475
1639 1 28.6031 11.5481 18.9898
145 1 3.19991 25.335 18.52
860 1 14.9741 12.4862 4.55382
60 1 18.4584 8.56894 6.91178
1160 1 3.82349 -1.25416 17.8634
1131 1 6.09835 -1.59541 -10.4237
889 1 -9.46762 11.5801 18.5901
1727 1 18.1464 -2.74171 7.34376
830 1 18.1112 -1.9255 6.69043
257 1 -5.79123 10.0424 -10.6126
1603 1 -5.15686 24.7645 32.1137
1281 1 -5.18541 -17.7814 5.79074
1787 1 9.55036 11.6262 -9.96801
557 1 8.05969 -1.55484 -9.22267
1970 1 -32.3672 -2.85766 34.3076
380 1 9.76233 -16.6344 5.76106
1638 1 12.2392 25.2505 19.7285
1248 1 10.3365 24.6927 17.231
669 1 -15.1652 -16.9344 5.15096
331 1 11.5566 11.691 -9.78405
335 1 13.3156 -3.34879 2.84446
1463 1 11.5428 25.0999 5.00763
1636 1 -11.2928 -0.835445 5.41053
1688 1 14.0772 12.8505 17.8182
592 1 -13.3984 12.4847 -8.30376
26 1 17.3029 -3.28829 -8.78096
1310 1 16.6926 13.9275 5.46581
920 1 4.88092 12.6094 6.73991
1961 1 3.57436 -1.70527 19.6227
1841 1 19.8659 -0.914295 -7.63283
2039 1 6.65491 12.8978 31.0614
822 1 -21.304 12.5144 7.05239
689 1 7.38963 12.1015 -10.4207
1976 1 20.8096 27.1501 5.73942
692 1 5.38727 -1.79198 4.73001
128 1 19.4762 -1.09187 4.20881
1334 1 8.63516 -0.782705 20.2582
828 1 -4.8398 14 6.86705
292 1 -5.88646 14.3456 5.44111
117 1 -4.26749 -1.02939 -23.9072
504 1 38.5102 13.465 6.08579
1036 1 -5.30316 11.7126 5.49273
1121 1 12.4308 -1.30952 6.96562
1357 1 -3.22167 11.6256 5.91382
1590 1 13.2103 -2.11134 6.7582
1745 1 -0.99978 24.9266 18.1054
1466 1 -0.581797 -0.794197 18.1509
785 1 26.8319 -15.5882 5.42628
1446 1 -13.0826 -14.0047 5.91831
210 1 15.8492 14.4625 -20.6156
1505 1 -10.4518 15.6944 -7.09065
901 1 15.6693 15.2756 7.51201
1376 1 1.88153 -0.383884 8.53048
1625 1 2.99622 2.25731 7.57532
1571 1 4.05686 1.39578 20.3253
874 1 31.5359 2.75001 -7.48596
415 1 32.4368 15.4081 6.35897
642 1 18.753 1.40557 -6.33149
1203 1 6.12034 1.54938 6.67597
280 1 7.95368 13.7185 6.40714
28 1 6.00871 0.591675 7.01706
1311 1 6.73129 -14.0615 34.5273
1694 1 6.81403 15.2008 7.39116
737 1 -4.1269 14.3083 34.8491
369 1 9.05122 -0.395548 7.57011
1743 1 11.885 14.2036 7.0082
1546 1 10.3334 -0.947597 19.838
1153 1 26.217 -14.0751 -7.10458
367 1 12.0891 13.8887 5.92536
711 1 -2.71537 13.2637 8.70489
888 1 40.5823 -15.1665 7.68851
1906 1 -2.13612 -0.505736 -6.67619
1364 1 12.8699 -0.648993 -8.08905
459 1 14.5067 1.29167 21.3917
1072 1 0.23913 1.65993 8.50714
1181 1 14.1946 2.41945 21.3589
1450 1 3.61019 3.99044 5.90668
1957 1 2.2355 2.41569 6.71798
638 1 31.787 1.29415 -5.42325
1715 1 1.47078 -11.081 7.632
662 1 5.08279 16.2467 20.6943
277 1 5.24717 16.8433 8.75507
363 1 7.01939 15.7506 6.27781
1003 1 7.12604 30.5486 20.3868
1512 1 5.03381 2.18131 8.10278
1515 1 9.72845 16.3173 7.29245
324 1 -5.92063 1.88775 -6.77177
464 1 9.87837 12.7567 7.07449