ITEM: TIMESTEP
125000
ITEM: NUMBER OF ATOMS
2048
ITEM: BOX BOUNDS pp pp pp
0.0000000000000000e+00 1.3679807573413575e+01
0.0000000000000000e+00 1.3679807573413575e+01
0.0000000000000000e+00 1.3679807573413575e+01
ITEM: ATOMS id type xu yu zu
822 1 -15.2452 13.2673 0.254983
1357 1 -0.343124 15.0804 -0.0138674
188 1 13.5862 12.6959 13.085
726 1 1.38991 16.198 1.29557
398 1 -0.696421 13.3002 0.954242
153 1 -0.0177695 12.7758 -13.2804
201 1 16.3012 13.6635 0.761915
1471 1 3.90337 -1.28389 15.955
200 1 -10.8289 14.4728 0.0150581
596 1 3.91971 13.0569 0.531634
1407 1 6.3097 0.311204 30.654
1523 1 17.3213 0.317423 15.3741
1652 1 -7.91148 -0.312547 2.31026
1654 1 4.79743 1.21943 0.875562
1612 1 -4.51363 0.615958 15.0254
468 1 7.25475 14.8299 -13.4264
167 1 -3.6908 14.4207 0.444581
1521 1 8.97874 1.76796 13.7556
1794 1 10.1572 0.428563 1.51715
1689 1 22.2014 0.253543 13.0865
1640 1 25.4601 0.381194 -0.67526
139 1 9.98139 15.5274 -13.5276
597 1 12.0235 1.9996 0.754641
2036 1 -2.95411 15.1599 28.2734
436 1 -13.8605 14.3281 1.00068
1892 1 0.800162 1.67367 25.4334
1215 1 15.5097 16.2594 0.187427
1466 1 15.5294 0.701118 14.4783
658 1 3.17925 2.17161 0.937216
878 1 2.94561 14.665 14.7899
1461 1 3.12186 1.80155 15.5704
832 1 17.3149 16.3355 2.27964
1179 1 4.51557 2.11311 -11.4516
1839 1 5.14655 -11.9646 16.9592
895 1 20.066 3.48035 -0.829772
872 1 4.9593 -11.5423 1.33445
1180 1 20.2591 16.7925 13.7959
2034 1 9.8188 29.3984 15.774
1650 1 5.61853 15.0719 14.0842
574 1 8.53323 1.39323 1.76857
1456 1 11.0855 2.50702 14.1931
899 1 -3.55371 16.0508 28.4415
870 1 -17.9701 1.49562 14.7959
1301 1 9.42796 3.0866 1.59176
1943 1 -1.45005 3.22704 14.0607
1178 1 12.8278 1.45745 12.7484
1245 1 12.9681 2.38302 14.1994
702 1 26.4568 28.9043 1.22716
1609 1 -0.404026 2.38496 15.643
1855 1 13.9989 16.2016 13.9061
237 1 -0.39089 3.3298 -13.5
234 1 0.136264 1.73932 0.961681
394 1 1.04674 3.58975 1.6997
1595 1 -12.9049 16.8296 13.2338
1146 1 0.330555 16.503 14.9614
804 1 3.3341 3.19572 13.9224
1661 1 5.02674 2.11407 27.5615
1860 1 5.69307 16.4202 14.5618
1096 1 17.5691 4.83062 0.174928
129 1 20.4868 4.33858 1.43349
162 1 6.39953 4.07906 -13.1685
1474 1 6.58213 29.5136 0.852479
1629 1 7.51842 2.60629 14.2903
747 1 -7.26631 4.86059 -0.235963
1901 1 8.47299 18.0794 26.6741
1554 1 22.3865 -11.1932 14.3808
1152 1 9.58998 5.01691 15.0775
1910 1 21.2363 2.07366 15.1714
980 1 9.53046 16.6325 -13.274
422 1 -2.98955 17.6097 -11.4805
62 1 12.3138 3.06027 -0.653495
539 1 13.6973 3.37617 -10.9983
1848 1 12.1865 18.318 1.49381
1432 1 13.9891 17.7236 -12.6284
930 1 -14.694 17.9045 14.1954
1057 1 0.795369 -9.05323 13.9879
71 1 1.04587 18.5781 -1.30733
1459 1 0.679395 -7.60839 28.5455
1351 1 -10.9582 19.172 13.146
61 1 2.20609 4.77772 0.22499
809 1 -12.074 -9.70614 -0.132667
1274 1 15.192 3.90939 -1.61827
1990 1 16.6939 4.20303 1.26684
247 1 4.50347 3.83068 14.2143
1319 1 4.2577 -9.6706 15.2949
1864 1 19.02 18.5826 29.1601
1812 1 5.24083 -7.88055 14.4955
512 1 19.4686 19.3517 13.6238
409 1 34.9009 3.58145 0.844159
755 1 7.23801 5.01659 14.4684
738 1 -6.6863 -8.01292 13.5221
1586 1 -5.8638 5.0455 13.5691
1464 1 -5.35022 4.83347 28.6948
616 1 10.8377 4.25338 0.230077
1611 1 10.235 -7.81149 14.5969
928 1 -3.62908 6.68577 16.3435
1115 1 -3.62783 -8.5044 13.8222
426 1 -2.35009 17.8908 1.20113
1449 1 -1.92661 4.83033 0.352973
1732 1 -2.41917 19.5685 0.252391
1676 1 0.378702 6.76938 12.0334
1214 1 27.5697 34.5415 13.3803
1788 1 13.5739 18.5504 0.686731
1089 1 0.938653 7.91521 14.9955
1491 1 14.8696 7.06108 27.9492
1593 1 14.1904 7.08634 28.9293
542 1 1.89302 -6.2471 -0.232767
1373 1 1.18348 -7.00252 26.694
1932 1 15.6156 -6.13527 15.0429
270 1 17.7006 -7.2815 -0.434635
1123 1 -12.0863 5.10593 -0.487596
1005 1 4.26324 7.84109 15.6282
839 1 3.15944 8.00633 14.6474
1118 1 6.12975 6.43804 14.1916
679 1 5.86245 6.43731 1.53873
232 1 5.21848 19.7761 2.45526
1293 1 20.4173 20.966 1.00108
138 1 8.90834 7.39727 -12.5009
1232 1 9.63723 20.515 14.4633
1926 1 -16.4861 7.47821 13.6037
1120 1 21.7872 6.38065 15.2342
193 1 -5.79159 7.23379 -12.5211
1605 1 10.1257 8.34323 -13.5174
1572 1 -14.5299 6.5546 14.5956
956 1 -2.4428 20.1796 -0.537214
339 1 13.6466 21.84 13.374
1980 1 13.2761 6.28965 13.4857
1292 1 13.8027 7.58236 28.0944
783 1 1.79856 -19.0892 -13.1341
86 1 40.3626 -5.13884 0.753517
1101 1 14.8308 -4.82152 15.1042
1537 1 15.8219 -5.01235 15.0922
1726 1 1.91216 23.2793 28.3693
1136 1 2.94398 9.23049 0.863958
825 1 17.3173 6.78697 1.51605
698 1 43.8245 23.6552 0.0882395
1272 1 2.59174 8.68287 -0.0787066
748 1 -8.69929 6.5959 0.175798
900 1 5.35894 -3.37278 13.9184
675 1 7.37612 21.7287 -13.104
1340 1 3.93496 9.31195 27.9474
1816 1 20.6356 6.11169 1.15093
2023 1 -6.06949 8.75247 -0.443541
1895 1 6.95183 -6.82191 -1.16776
981 1 34.4071 9.31273 -13.3733
1792 1 9.15545 22.2937 15.0892
1979 1 -7.05038 7.68095 13.5433
1628 1 -4.42055 -6.0686 13.7377
513 1 23.6336 -17.8441 0.390315
966 1 -3.04297 22.1234 1.80317
606 1 23.7393 7.74277 1.18925
258 1 11.0613 7.70067 -12.8152
973 1 -1.76977 -5.42014 14.3925
1458 1 12.0494 7.08824 12.7055
264 1 11.9262 9.40771 -0.194371
314 1 12.9517 7.58634 -12.2478
430 1 -1.60364 23.0715 14.5058
771 1 15.5347 10.2814 15.4411
11 1 -0.164896 -3.64375 0.59736
332 1 0.179784 9.12265 0.974232
1705 1 14.6615 23.5809 14.318
1746 1 15.5144 8.50402 12.8971
864 1 15.3658 -4.2387 13.5955
1370 1 -9.78591 -3.31545 14.0282
1498 1 2.94928 23.8003 15.0317
641 1 4.13851 7.07169 14.0363
818 1 19.2895 11.2506 0.140333
1386 1 4.5806 -3.82532 13.4585
640 1 20.4802 -17.0365 13.9607
384 1 -5.41794 9.33148 0.939197
266 1 -5.50291 -5.44195 14.985
1187 1 19.4496 -2.67012 2.20548
2009 1 -6.11481 10.9651 0.417981
1540 1 -6.11092 -4.27565 16.3227
1128 1 8.92145 -3.68035 15.2128
288 1 9.57985 -2.60498 15.76
1744 1 -3.79437 9.45557 15.1884
231 1 -3.65544 24.0711 14.6691
1159 1 -2.38823 -18.7973 -0.1868
357 1 11.0317 9.659 0.193235
1577 1 -3.30197 -3.32163 26.948
685 1 -2.85218 8.71302 0.772348
1776 1 10.9612 10.1948 28.6722
1376 1 -1.95071 -3.16746 0.71849
414 1 14.0701 10.8265 -1.36785
1061 1 2.30608 -1.66034 13.6703
1420 1 29.4309 -16.6808 13.3951
521 1 13.4971 -2.5584 0.928824
1418 1 2.04526 24.5823 14.4321
1087 1 16.6826 12.6643 14.2002
1142 1 -7.48578 -1.24609 0.962955
1757 1 5.75637 -3.18291 1.24973
1972 1 19.0706 -1.22025 13.8819
1343 1 17.8474 11.1945 -0.176331
322 1 6.2287 -4.37543 1.04323
1536 1 5.40876 11.5371 1.22449
260 1 -6.02739 -0.757188 0.909672
908 1 8.36002 11.0734 1.89995
1911 1 22.1507 -1.55966 14.7129
1766 1 9.40247 12.0525 14.1568
1503 1 36.4083 12.1432 15.7143
1311 1 8.81604 -16.2734 14.6551
485 1 -2.83185 -2.56985 0.334764
1623 1 10.4821 -2.03931 16.0423
420 1 -1.28094 24.9374 -12.413
1845 1 -1.82979 11.2662 13.6246
27 1 -1.51439 -2.86664 -11.4978
42 1 -14.5149 11.0513 13.9479
510 1 -0.32613 13.822 0.0585339
235 1 1.27387 12.4779 -12.3203
1114 1 0.282068 -0.873547 1.42597
9 1 14.669 11.0121 0.977159
171 1 1.29775 25.5573 14.0935
2033 1 1.8318 12.9989 0.409736
1835 1 3.06018 -0.261126 -0.384724
1256 1 -9.15614 12.3132 14.9248
2040 1 7.05803 12.9585 16.4651
205 1 -7.2372 14.0355 2.06029
15 1 6.73124 -2.78516 15.5005
2048 1 7.5758 11.5279 15.0153
2030 1 9.60564 -0.364673 15.8025
369 1 8.60215 13.122 15.1189
1561 1 -3.05873 13.0705 15.2104
863 1 11.2576 13.116 0.707421
1785 1 11.8728 11.9258 16.7001
1929 1 -1.7793 13.0057 1.41767
1247 1 12.8395 12.282 13.7175
1958 1 -0.486344 12.1062 14.8702
1906 1 -0.137577 -3.12405 -0.481073
1483 1 -1.70967 27.7629 29.8336
1584 1 13.8177 11.6567 0.0434354
1258 1 -15.1061 12.0325 2.08088
1305 1 0.329108 0.701632 2.6002
1886 1 13.181 15.3984 18.4624
997 1 0.977694 28.6943 3.22591
974 1 0.664114 14.0604 1.52492
1352 1 -12.2195 15.4728 2.29909
1574 1 1.42971 0.685322 29.8816
1496 1 15.9071 1.84626 14.6086
614 1 3.62599 0.235172 16.4942
1056 1 1.57888 0.0322612 15.3188
687 1 16.9871 -0.735121 15.3022
1124 1 5.60431 1.11274 29.8519
532 1 18.7062 -0.156338 2.99752
335 1 5.41214 0.570141 1.57597
346 1 -5.83652 -13.4328 -12.1064
74 1 -6.84336 14.9385 16.0012
1645 1 -5.465 1.40449 -12.9226
1526 1 -5.04409 0.953472 16.4742
1255 1 -6.72806 1.01061 15.0233
1026 1 -21.3817 1.43659 1.56046
537 1 11.0952 2.40173 1.50523
488 1 -3.71043 14.31 2.50448
88 1 11.2871 0.278843 1.55915
210 1 11.6623 15.1416 -12.0913
1428 1 12.3109 13.9804 1.41244
1721 1 24.7755 14.6415 16.4365
800 1 -1.31576 1.7805 2.32369
909 1 13.0957 14.3692 -11.585
1323 1 1.2311 1.51801 0.923953
986 1 13.238 2.65161 16.8389
1155 1 2.34167 1.85836 3.68787
1276 1 2.31749 -10.9446 -12.2514
1225 1 2.34888 15.9085 2.63093
1674 1 3.01204 0.720315 3.52035
198 1 -9.30581 16.1879 3.33564
1807 1 3.58473 -12.0484 16.5349
475 1 5.57621 3.82004 15.0559
82 1 5.52981 -11.503 2.29119
1090 1 -7.12466 3.0722 14.9307
954 1 3.29291 15.7181 -9.51543
1185 1 -7.00849 2.29436 1.93759
876 1 7.73981 28.1103 4.12017
1597 1 7.86146 1.53299 2.50165
418 1 8.67875 16.0041 29.2845
1157 1 9.66746 2.53139 3.55109
1913 1 10.4131 17.2871 14.6151
412 1 22.6893 3.01096 -11.0556
378 1 22.6189 4.00717 0.973515
459 1 9.80822 4.01449 15.5181
1486 1 12.2526 17.4082 15.8318
1802 1 10.0645 16.7874 16.1094
514 1 -1.96139 2.52037 -10.2496
563 1 -0.297594 1.61161 2.66133
773 1 12.358 2.80091 2.58307
241 1 1.7294 3.14845 2.23912
654 1 2.24112 30.8142 -12.9646
896 1 3.51319 3.20333 15.0224
1938 1 4.24311 3.65036 16.5432
1524 1 16.6925 17.1765 2.50709
692 1 4.43768 3.05212 1.28966
710 1 4.96135 16.8338 2.09772
1410 1 6.02843 3.10439 2.11659
701 1 19.2176 4.68435 13.9564
1665 1 5.61785 4.03484 2.57887
1828 1 6.176 19.2609 2.02989
236 1 7.37086 2.99442 2.00709
861 1 8.72738 3.99476 -11.5472
225 1 -19.305 -10.3192 2.71796
761 1 8.03522 5.02076 2.55494
1362 1 10.5255 4.17797 3.35512
1716 1 9.07128 -8.77156 2.29177
1891 1 -2.23884 3.24169 1.27335
860 1 13.25 4.34264 1.88129
772 1 0.724173 2.45562 16.0664
1600 1 14.54 4.41497 15.9209
1683 1 1.64492 4.5995 14.88
424 1 -12.6924 4.6922 3.31893
196 1 -12.0153 6.55762 -12.1085
2 1 1.49254 19.2862 0.699197
881 1 0.778416 5.01953 1.37588
330 1 15.8114 4.12622 2.03224
1664 1 16.5119 20.0375 -10.7662
670 1 2.52458 5.47351 -12.3461
1226 1 18.163 4.96738 2.34455
2024 1 4.65963 5.04201 14.7234
2025 1 3.25743 19.9048 0.178303
607 1 31.9457 5.42685 3.74684
729 1 7.20907 6.3608 15.8068
571 1 6.29688 5.3878 1.00209
1806 1 8.37088 -10.3977 1.48539
211 1 -6.17391 5.43469 -12.0214
1281 1 -4.61632 -7.75289 1.36814
862 1 8.76906 -8.30109 3.3999
331 1 9.444 5.86818 -11.3727
127 1 11.1845 19.0431 -12.4742
216 1 10.3039 18.6822 2.68068
1193 1 11.384 18.8489 15.9107
347 1 12.161 6.65274 13.9255
401 1 11.7783 20.8443 1.49833
1499 1 26.9651 5.39091 15.7263
742 1 0.102358 6.24239 -11.6864
321 1 2.75168 -6.70612 0.878878
1149 1 0.338729 5.57276 2.81291
350 1 29.5096 -5.38522 2.58663
1048 1 1.59608 7.09577 16.797
145 1 2.14048 19.9859 13.5819
950 1 0.783522 7.8014 -8.93028
897 1 3.67793 5.12702 14.9004
1975 1 18.1156 20.4288 2.28786
756 1 3.59066 20.8638 2.74892
1036 1 3.65152 5.98335 15.9928
1897 1 4.65478 -8.08324 -0.0352331
1890 1 4.54999 -7.80563 1.6105
280 1 4.06065 6.1193 0.809284
1824 1 20.7824 -5.71829 15.2898
1527 1 4.59326 7.18678 1.27457
1694 1 8.10392 -6.54881 15.8994
744 1 8.5359 8.15548 16.2291
249 1 8.39693 19.6592 2.47989
1331 1 -4.45037 -6.84937 2.11803
1271 1 9.62519 8.95329 16.0269
1749 1 11.0125 20.3952 0.929221
1002 1 10.2484 20.4335 15.3157
721 1 10.7312 20.1973 17.6057
56 1 -2.81631 21.1628 2.02755
1055 1 11.7272 -6.90257 -10.4064
1859 1 0.797007 6.68945 16.2604
150 1 -0.746985 8.35112 -11.1704
460 1 0.0444306 -5.48684 15.4689
345 1 13.8052 21.6164 3.57668
1951 1 14.1513 8.5586 16.3604
1743 1 1.1682 21.4578 2.34646
2007 1 -11.4587 7.17598 15.9132
1606 1 1.14463 8.05376 17.5076
1462 1 3.9603 8.66924 -11.0912
375 1 17.3313 8.9255 15.3022
1729 1 4.60244 20.8578 30.5614
902 1 -9.31008 8.30141 0.7845
728 1 5.23331 22.2308 1.50707
2043 1 22.0927 9.21417 3.79533
712 1 6.67657 7.1852 2.25849
229 1 -6.22017 22.1203 -11.1234
1497 1 9.14569 8.37688 3.30777
664 1 8.35593 22.7701 -11.6103
1389 1 -17.7666 22.025 -9.29176
1148 1 12.0126 21.3387 2.53372
1213 1 8.92248 10.1337 16.3553
274 1 -1.86528 -5.09356 -11.8865
903 1 -1.44921 5.68706 14.5527
652 1 0.207688 7.47392 -11.0853
444 1 -14.4826 -6.0804 3.34024
1422 1 -2.39061 8.02525 17.3466
1865 1 14.542 10.7456 -0.0204353
987 1 -0.905488 9.09685 -11.9447
259 1 -13.4058 24.8785 -10.7608
1210 1 14.1855 10.1946 2.81412
257 1 3.03183 7.83986 2.22007
1713 1 14.5227 -3.8566 -11.8879
572 1 -11.0208 9.32893 2.0664
932 1 1.65519 9.09123 2.3049
395 1 4.91891 10.396 1.91291
1804 1 4.08046 -3.61202 14.9967
1508 1 4.55801 11.0039 1.01313
1202 1 19.7415 7.97389 15.2106
661 1 7.63112 23.9161 1.1825
1023 1 18.6657 23.2296 -12.724
96 1 21.0836 9.07734 15.1276
1495 1 6.7548 23.6562 -11.7748
65 1 6.62577 10.3705 16.6099
583 1 9.50244 -3.2718 3.72928
1031 1 -6.07503 -5.05517 -10.0611
1624 1 7.59793 -3.0303 16.3684
221 1 9.97468 10.1695 2.17395
2027 1 9.44114 -4.11615 3.22066
1070 1 -1.26438 -4.68737 17.8822
1006 1 -3.45037 23.5185 17.8208
1981 1 12.1395 8.58877 16.9989
1283 1 11.2486 -3.84471 3.46911
1043 1 -0.461404 -5.46604 4.27324
1320 1 -0.869944 10.2291 1.26196
1332 1 14.625 -4.30578 16.7667
1261 1 1.82109 11.2271 1.85702
2018 1 1.16538 11.8537 16.2573
971 1 -10.3001 -2.59217 1.29771
1223 1 1.9612 -3.3998 2.77767
1140 1 4.78349 -2.3767 2.5285
44 1 -9.92126 -1.77293 0.609593
207 1 16.4832 -16.6175 2.10932
39 1 4.36185 -3.43588 2.91292
1154 1 5.2953 10.6116 17.0128
959 1 6.01698 25.6649 2.17625
16 1 7.81155 12.5475 15.6463
1801 1 -6.36304 11.0029 3.61801
828 1 7.43386 9.64482 3.6624
121 1 9.97935 11.003 3.04181
20 1 9.00463 -2.07784 2.96683
1525 1 11.0243 10.6694 2.31848
1968 1 -2.64439 26.1002 16.7904
1126 1 -2.33636 11.0612 16.9109
1784 1 13.2212 24.9672 2.08205
1359 1 -1.9543 9.73297 15.6066
1468 1 14.5357 13.2679 16.0338
334 1 2.55206 12.1919 2.14392
1684 1 2.15623 -1.76881 14.8808
1454 1 15.9266 12.956 15.2297
371 1 -9.75825 10.8989 2.21174
1646 1 5.06994 -14.9315 -11.561
854 1 3.3795 -2.22392 3.10227
516 1 19.5419 -14.6436 -10.6237
134 1 5.37422 11.979 -10.0702
1475 1 -8.84769 13.0277 17.5866
780 1 6.18334 -0.449168 4.1258
1560 1 -6.6258 -2.19683 2.57365
1591 1 6.91093 -0.790856 4.89534
294 1 -6.10259 14.0975 16.2962
98 1 -5.33287 -0.303985 2.4315
1881 1 9.90099 12.2916 15.1179
1733 1 -2.80792 27.2196 2.65766
1649 1 21.7865 13.1132 30.7518
1825 1 -18.2708 -0.0391216 3.13555
445 1 11.3818 11.1929 1.45525
1702 1 -15.5259 -0.751083 16.2777
1770 1 12.8057 -1.02555 16.5602
1916 1 -0.95163 -0.55011 15.6383
1969 1 13.6018 12.2219 15.9565
1542 1 -0.945743 1.00704 3.05371
1939 1 0.558914 1.70427 18.0668
1453 1 -13.3341 15.7187 3.44868
2019 1 3.05954 12.992 16.5297
494 1 2.0524 13.4487 -11.138
1433 1 0.842873 0.820111 17.7147
2041 1 16.3198 0.233617 15.5044
1088 1 2.32059 14.8011 2.12144
547 1 -9.47497 -0.619986 3.04485
172 1 4.59995 14.5845 2.66763
765 1 2.37026 13.0386 17.5192
999 1 3.2403 13.4491 4.21193
668 1 5.30312 14.4033 3.39511
1262 1 -7.42777 2.76262 17.5322
920 1 6.1678 1.6653 2.9542
1104 1 19.0158 1.31364 -9.3523
1728 1 7.23784 13.3523 17.6281
1987 1 -7.31519 14.2312 18.0069
1417 1 9.30462 -12.8014 17.4441
333 1 20.6446 1.04748 3.52867
1866 1 10.5229 -12.3796 15.6443
1840 1 -2.45468 1.94649 2.53362
302 1 -4.66247 -0.0390901 5.21685
317 1 -3.66433 -12.2352 4.42838
1768 1 -1.88739 14.8553 17.1363
53 1 26.5143 1.89726 17.4455
720 1 -0.989614 0.659531 4.62833
1121 1 13.3417 -1.18738 5.07906
912 1 -0.239067 14.6479 -9.8355
102 1 0.712211 16.2356 -8.66026
781 1 15.157 -24.8828 3.28433
580 1 3.72905 17.119 3.6223
1099 1 13.7932 -10.6529 5.55156
525 1 2.11674 3.29369 4.85916
1530 1 1.70028 30.2163 6.81868
159 1 4.49254 17.0284 18.5583
41 1 -10.1072 -12.9019 4.56737
296 1 3.37391 2.46087 -8.57172
579 1 18.2389 2.33351 4.28355
714 1 -8.25909 16.4973 16.7944
891 1 20.758 15.8282 16.5897
1112 1 -6.46344 3.12325 3.23345
657 1 -5.64978 15.1798 3.56116
868 1 -6.72517 3.17222 18.3795
630 1 7.8555 -10.2394 17.9357
1414 1 -3.02092 16.3165 3.11123
593 1 9.20899 1.71626 2.87904
1209 1 -1.28038 2.73894 1.56296
1455 1 -2.34552 16.7661 2.43056
1868 1 -1.98305 0.927261 -8.711
220 1 12.3909 15.3116 5.5145
1781 1 12.6041 16.5189 4.05993
1085 1 2.30525 -10.6554 17.4554
2006 1 14.7197 3.67988 16.7131
1045 1 15.9471 5.02071 3.13135
1872 1 -12.0939 3.89201 3.95761
483 1 3.08045 3.24585 4.46664
613 1 3.47873 -9.13397 -10.9069
248 1 18.4817 17.1365 3.80779
446 1 18.941 5.08574 -10.7155
749 1 3.19232 2.59651 3.28144
741 1 5.90842 17.3967 17.1332
983 1 19.0151 16.3686 5.37024
419 1 5.1847 4.06182 5.30366
1698 1 -7.49817 4.75708 17.2482
913 1 19.1805 3.31393 18.2565
1392 1 6.88028 3.82123 16.049
894 1 6.81531 4.06646 17.2486
400 1 -5.9773 17.7914 15.6519
1341 1 22.5852 2.0518 3.79639
1473 1 21.5013 31.7736 3.38402
1810 1 8.77946 3.11297 17.5508
1377 1 -3.79168 3.66392 4.07038
413 1 22.8177 3.6854 4.81393
1304 1 11.7134 -9.28856 3.99309
550 1 -2.1393 -9.38993 16.4665
1996 1 -4.13214 18.5075 17.2734
739 1 -0.868753 31.6412 4.00933
569 1 12.3469 3.63237 4.56585
453 1 -13.65 17.5438 3.84671
1912 1 -1.05884 3.48944 17.0263
1403 1 1.22125 5.76615 3.96493
1141 1 12.9226 19.0348 4.08809
1047 1 15.3945 5.04122 15.7614
1032 1 -10.6046 5.2185 4.49689
1888 1 4.09585 4.36855 3.70029
688 1 2.93785 5.13891 2.26681
582 1 -11.7438 6.00075 -10.8902
3 1 1.9811 -7.00141 4.24695
486 1 4.09851 18.7419 4.83446
1127 1 -10.4804 5.51516 3.52381
609 1 5.68225 -8.25012 -9.44396
1207 1 4.70845 6.87537 17.9021
1960 1 -7.58796 20.9403 3.37864
491 1 -7.50932 20.1005 -10.9629
655 1 7.1015 17.9903 -8.892
502 1 22.454 17.8636 3.93994
1177 1 20.3966 4.81345 16.3113
1701 1 -6.59699 18.8517 3.66851
1122 1 10.0664 5.84205 17.3185
1435 1 -4.00365 17.7519 2.86696
1830 1 11.9599 -8.54821 16.8994
1395 1 11.0838 19.597 16.7591
405 1 -1.62145 19.6503 -11.6527
1581 1 12.7284 5.63539 2.97594
1904 1 -1.00571 18.1968 16.4507
1887 1 13.4441 4.77336 17.0403
1583 1 -13.1822 19.2891 18.4973
682 1 0.651283 6.98838 3.6974
955 1 0.0962763 5.84748 -9.90634
884 1 14.5394 -7.65808 6.132
1622 1 -0.329978 6.56478 16.7758
1051 1 27.9838 6.67659 5.00889
706 1 3.20534 6.71358 -9.75352
589 1 2.71816 20.0698 1.87288
151 1 4.09608 6.31618 -10.3745
2021 1 -9.81174 7.50351 17.8849
1988 1 5.34495 7.41757 15.8167
1946 1 30.1042 7.4418 4.46335
362 1 7.18371 -6.95888 3.13145
1509 1 6.40784 6.03025 3.69205
931 1 5.11199 19.9354 3.38583
368 1 6.89806 7.77759 3.10096
28 1 7.17089 7.34916 4.18389
107 1 9.63815 7.84493 2.37759
48 1 8.82719 7.38019 4.21523
1959 1 -4.66438 20.293 3.17661
1492 1 23.1801 -20.8702 17.772
1805 1 24.1209 5.74098 1.92879
849 1 12.693 -7.19725 3.81986
213 1 10.263 7.17853 -7.81379
2010 1 12.8927 20.5539 2.15246
1145 1 12.2297 7.51441 4.18271
1829 1 0.32045 -4.89463 4.70638
1315 1 -10.9661 7.42307 3.24392
1659 1 1.07978 8.12129 5.69684
559 1 15.9648 -5.29013 5.64213
442 1 30.6017 -5.18299 -9.85807
370 1 16.7093 22.1687 4.82486
1452 1 18.5231 9.11176 4.38557
1738 1 5.26094 8.06165 17.3027
1662 1 6.75458 8.84036 3.03577
725 1 -7.85096 23.2158 3.11388
1363 1 -7.16211 -4.84872 2.05324
1997 1 -6.1456 8.19264 18.3604
885 1 8.08564 9.29249 4.89374
399 1 -18.7843 7.62025 -8.3866
1522 1 11.0516 21.9764 5.68325
1869 1 10.194 22.6814 18.574
1656 1 10.6826 -4.19891 2.42517
490 1 -3.91647 20.9776 -23.8559
777 1 -1.94839 -4.38835 5.33281
1312 1 11.134 8.89651 18.0797
1850 1 11.2578 -6.40992 18.1892
1690 1 -0.186963 7.2429 4.43631
750 1 -0.0575457 9.43251 2.3363
853 1 13.1566 -2.07052 4.29109
1167 1 -14.3198 -3.30933 2.38983
585 1 1.27689 9.38727 31.5318
523 1 16.5655 8.88557 16.6206
1080 1 1.91325 -4.51156 17.0522
1944 1 16.4203 9.29774 4.14884
695 1 17.2179 9.82413 2.17849
1302 1 17.9303 8.25721 3.72377
1257 1 19.4849 22.1218 16.5654
300 1 -9.17458 9.35022 -11.6043
109 1 18.4936 -4.39585 3.05435
354 1 -8.16586 9.90522 17.9857
1074 1 5.15365 10.0695 -8.36244
578 1 5.63356 9.39549 2.01274
295 1 -6.69907 9.05097 4.46774
975 1 8.35568 10.1824 17.8343
1450 1 10.4172 9.0449 3.49
45 1 9.46958 11.4051 -9.70933
815 1 -3.88847 9.89361 5.52785
1307 1 -0.363289 9.08461 3.60531
1234 1 -3.33831 11.2297 4.64212
1139 1 -1.19072 -4.07304 3.04453
306 1 13.3342 -3.19271 3.44579
1093 1 13.1332 -4.18357 18.5439
759 1 -1.52203 11.1704 18.3056
58 1 14.5842 -2.7576 -11.5192
1349 1 -13.3065 -1.86118 18.3849
1861 1 14.9531 11.217 17.0722
340 1 2.2823 11.2674 2.85596
718 1 2.6421 10.2739 17.5762
1977 1 2.31512 10.0475 33.2945
935 1 17.5365 9.32029 3.48048
1774 1 4.42142 23.7496 17.6487
1708 1 -5.8122 12.0442 3.11077
1086 1 6.13225 -2.33263 3.05117
1724 1 20.3706 23.9905 17.7728
140 1 19.9611 25.2555 4.07776
1482 1 -6.28304 -2.2556 4.55928
699 1 8.76508 -1.38988 3.7032
320 1 -3.08722 11.6994 3.75551
1451 1 9.52516 -1.37895 4.62305
279 1 23.4362 -15.0019 3.62934
796 1 -5.32309 -16.2739 3.55358
886 1 11.2422 12.3062 -11.7879
219 1 11.4159 10.5717 4.19596
1022 1 24.762 -0.823281 4.06706
342 1 11.15 -2.36798 5.27309
776 1 0.713748 11.9879 17.3172
415 1 26.2447 11.068 3.42749
933 1 -0.344752 11.7997 -10.2696
1163 1 -2.066 11.8617 -9.67336
1712 1 -1.01551 13.7882 3.53143
977 1 15.3468 12.6686 3.13948
1559 1 0.0109675 -0.551593 16.7948
737 1 -12.6364 13.7604 16.9327
1826 1 2.62036 12.2517 16.9468
1265 1 3.72995 26.1357 17.4351
1072 1 4.46486 -1.67892 3.16011
1105 1 4.55119 -1.6022 -9.06358
1040 1 4.07136 -0.456193 4.66879
1442 1 3.28539 10.3045 16.6816
762 1 19.5385 25.975 -9.01143
1617 1 3.63786 -2.92082 17.7688
1940 1 17.7787 0.170605 3.63643
170 1 7.21755 0.259051 -8.62377
2045 1 21.3644 12.2906 5.16618
406 1 6.87383 -1.33862 -10.0709
1196 1 -5.82849 12.431 4.12978
1681 1 -19.1713 13.5893 4.42744
883 1 8.25554 0.647904 5.10983
379 1 -3.2681 14.297 3.43991
508 1 9.26603 13.3125 17.8742
1242 1 10.0475 -0.463659 16.9105
637 1 -2.05211 0.0373231 3.48057
1220 1 11.0522 28.0517 17.91
111 1 -0.451724 12.687 -9.66666
313 1 25.6957 12.7724 3.77313
106 1 14.0715 -2.7204 4.05628
1260 1 0.211333 13.5753 17.7324
1228 1 1.03643 -0.031463 4.66436
1877 1 -0.570118 15.15 20.3468
2002 1 -11.6077 14.1139 18.0583
633 1 16.3505 15.1554 -7.32749
1814 1 1.46375 14.9554 18.4987
942 1 15.14 2.19749 4.24109
1287 1 -9.3536 1.46908 4.84965
1603 1 -8.07602 15.437 19.0786
570 1 21.0304 2.33068 5.04093
1993 1 -8.20477 14.7135 6.30011
1823 1 7.03914 28.2417 5.96664
133 1 -6.76845 15.0913 4.76533
467 1 -4.93021 0.526378 -7.60014
1296 1 7.87537 -0.150506 20.2634
646 1 -3.46672 -0.292594 19.4454
34 1 -3.27845 14.2993 5.22236
70 1 -3.67046 1.61914 5.53066
1507 1 -3.2858 16.3672 17.9463
206 1 -2.69834 15.2753 5.12213
146 1 13.2029 12.6522 -7.58324
84 1 12.2968 -0.542494 4.80091
178 1 13.1287 0.545956 -7.82661
1278 1 -0.281797 13.5435 5.01919
530 1 13.1159 2.77613 6.34673
1849 1 3.35098 1.09963 7.28945
651 1 0.976595 15.5016 -7.94387
265 1 -11.207 1.19994 5.21209
1678 1 -11.2327 2.32635 4.64909
1909 1 5.7845 -10.9433 6.5981
979 1 17.9497 16.4086 19.3615
1718 1 31.447 1.27144 17.4606
802 1 6.20161 29.0588 17.5467
1767 1 6.22893 15.9704 18.5385
1813 1 -7.60601 3.52374 7.67195
458 1 -6.52434 15.8254 4.00456
2015 1 22.8119 14.8985 5.0157
1015 1 -2.58378 15.4619 3.88181
89 1 9.24761 1.28362 6.50736
324 1 -3.50598 1.67151 -10.4603
189 1 11.3629 2.87448 -9.23866
790 1 -1.47227 3.37157 -7.6758
1361 1 -0.0985373 -10.8948 4.23609
1562 1 11.6327 -11.03 19.1345
615 1 -1.02922 2.63989 5.25412
240 1 12.1713 13.5619 19.5961
447 1 27.6041 3.94505 6.0973
693 1 0.740824 -9.81935 -9.02255
833 1 0.394151 4.78904 -9.48305
1889 1 -0.244297 17.583 18.7014
1933 1 0.706708 2.67688 19.9225
131 1 1.37586 4.72564 -9.00699
848 1 3.3767 3.486 19.2556
148 1 2.3711 17.6513 5.5855
988 1 2.08088 15.8567 5.7478
617 1 3.53495 4.08154 -8.94239
1064 1 2.7706 4.25984 3.5181
1360 1 5.02444 -9.31844 4.27691
531 1 5.36472 4.49941 6.39858
1427 1 -7.65616 4.49896 5.4875
1856 1 8.42199 2.65665 18.5529
560 1 7.54445 18.8935 18.9413
797 1 8.13468 4.37585 -8.8304
1241 1 22.7198 16.9907 19.534
921 1 9.4741 2.47537 4.75443
1153 1 8.03124 -11.1764 3.31043
709 1 -2.4055 17.1316 -10.0752
911 1 12.0847 2.00192 18.1775
1648 1 12.2748 4.50106 18.7454
12 1 -0.670168 18.0955 5.87505
774 1 14.4461 -10.6813 17.4817
160 1 14.105 4.79622 5.56994
564 1 -11.7252 5.32497 6.2496
120 1 13.7488 4.66798 -6.69484
312 1 2.23902 5.79275 17.4493
1236 1 2.96998 18.2131 6.55858
605 1 4.28989 4.90505 6.64206
1819 1 3.96142 5.37924 19.5097
806 1 4.92396 5.74054 5.92426
520 1 -11.2642 -9.34568 4.58101
1578 1 17.9056 -9.66554 5.62207
700 1 18.8145 6.21041 4.93763
108 1 5.16726 4.99216 18.7354
1692 1 18.8618 19.1349 20.7151
1229 1 6.03642 4.23974 4.45197
242 1 6.99685 5.3551 -7.05191
976 1 -7.72909 5.31818 -7.41928
915 1 5.76889 6.73257 4.23737
690 1 6.59987 5.52169 -8.8854
1430 1 21.7472 5.2093 -9.48348
904 1 -3.3802 18.6878 5.25618
1205 1 -4.14671 19.3358 18.4633
336 1 8.56247 19.7448 17.8714
1326 1 -3.56977 19.5498 5.69731
1379 1 -3.16687 4.25514 4.57945
128 1 12.7097 5.54205 5.42356
1556 1 11.5506 5.2038 18.2476
1871 1 -2.83445 -8.60485 17.3848
735 1 -0.358887 4.83543 4.87203
484 1 2.87485 5.44999 5.48949
376 1 12.4182 6.67921 19.569
1444 1 1.9227 19.0413 18.8189
1144 1 2.52529 -7.48665 4.99288
192 1 17.6975 5.96764 -9.06978
1233 1 16.3599 -6.21584 -8.26688
916 1 -9.64776 21.9603 4.83295
1905 1 30.8397 6.8956 18.6727
798 1 4.60649 7.33833 -8.53202
309 1 5.8296 -6.30307 5.90649
1720 1 5.28887 7.81584 4.63941
2047 1 8.01036 22.235 19.5248
6 1 5.98953 -7.45674 5.54674
101 1 7.32792 6.0468 -9.62945
1186 1 -5.60789 6.71499 4.82766
428 1 -5.25012 19.4249 5.12078
1896 1 10.8751 -5.99665 20.3009
1342 1 24.1439 -5.8328 18.4693
1863 1 22.9055 7.13473 33.9136
811 1 11.828 -21.1667 4.22488
1625 1 -0.464808 6.25302 4.79563
10 1 10.2109 6.69036 -8.88485
1703 1 -13.412 -6.03265 6.30006
156 1 26.9789 19.2043 6.34973
1706 1 -14.3754 7.53888 6.22765
338 1 13.0713 8.59309 6.30112
1884 1 14.2756 22.2992 20.3054
831 1 15.1075 -5.02455 4.79105
1406 1 33.0253 8.96675 5.28629
1669 1 -9.13205 9.20925 5.3512
1203 1 2.60854 8.29811 6.6717
1463 1 19.4945 9.72238 6.01481
223 1 6.48442 21.7797 -9.62629
554 1 20.1373 -5.61349 5.12881
1060 1 -6.85108 6.62935 4.82377
1531 1 6.86132 -4.57141 5.49097
472 1 8.48654 6.69628 5.8872
1368 1 35.0947 8.46685 20.7018
501 1 -6.08385 23.3988 -6.61897
905 1 -3.68718 -5.47682 5.97962
308 1 8.77661 7.99895 6.34162
1520 1 -5.18023 8.45679 18.3358
1415 1 -2.13609 6.96689 5.46574
1727 1 10.8913 -3.95387 5.96887
381 1 9.75898 9.19017 -7.38696
18 1 -1.76786 8.32644 -8.74113
548 1 -28.9769 7.83805 -7.60816
1847 1 13.5055 6.96523 19.2163
1263 1 12.474 7.38674 5.21275
1068 1 12.5368 -4.19174 6.83536
1626 1 13.7128 -19.4388 19.0698
814 1 0.169063 -4.753 -21.682
808 1 1.04446 9.68584 5.29223
1013 1 15.8036 22.0389 4.1024
1666 1 1.09745 23.2811 20.0246
711 1 3.75049 9.27639 4.61689
567 1 3.20859 9.03895 5.7313
1838 1 5.71133 8.86212 -9.59948
1285 1 17.1421 -1.96946 4.74715
1846 1 6.325 9.84095 4.97229
2031 1 18.5571 11.1117 -8.63041
1842 1 7.76841 9.67891 19.5203
1289 1 -4.49515 -4.3201 4.59041
480 1 21.0563 10.0653 4.82764
1235 1 22.5047 9.74722 5.70068
407 1 9.60735 11.2188 5.8214
1851 1 -4.55802 -4.94021 5.40407
154 1 10.4483 10.5712 -7.56974
1129 1 11.0207 -3.75847 -8.82336
573 1 25.3434 -16.965 5.58699
37 1 -0.855758 8.53259 -8.43728
1409 1 -1.25355 10.0691 17.7076
624 1 -1.38759 10.8095 -6.78166
1875 1 28.0867 -3.08215 5.01373
1771 1 14.0359 9.87535 -9.49863
575 1 13.9636 -1.96471 19.9974
561 1 1.34374 10.2812 3.77497
635 1 29.1268 -1.64812 3.94419
1479 1 -11.5618 23.0014 5.12332
1356 1 15.135 -16.1481 4.45188
310 1 4.08391 10.1446 5.04516
866 1 -10.5672 -3.78909 5.23054
1722 1 30.4301 10.7407 5.84097
1200 1 4.08698 -1.23149 5.54263
1538 1 4.98495 11.7524 19.6933
823 1 4.94133 12.1139 7.19749
602 1 5.78331 -2.89494 4.68993
17 1 -7.63373 -1.76537 5.68931
1030 1 5.78884 10.9004 5.72671
1608 1 -6.67018 -2.73676 18.9862
1206 1 7.22114 10.4031 19.9795
618 1 9.205 10.5361 4.9867
1259 1 -3.75011 11.9049 6.70996
1348 1 9.44667 -3.52902 6.49522
586 1 12.0176 11.3453 -7.88215
1481 1 -2.70524 11.4745 6.66626
1599 1 26.7962 10.4852 18.8401
1978 1 15.3024 -3.0992 5.52396
963 1 -0.571665 10.7891 19.772
962 1 15.0258 12.2018 4.92754
301 1 14.2059 14.5439 18.8054
1753 1 2.2869 11.7434 5.25962
2001 1 2.61993 -15.1273 4.3788
717 1 15.8776 25.2952 19.924
252 1 14.7732 12.8568 3.90541
1171 1 15.6701 -0.477848 4.84047
1783 1 18.67 -0.810161 19.0134
1545 1 4.56326 14.1318 18.9579
307 1 5.21677 0.167351 18.0634
461 1 -9.09833 14.017 6.50483
1335 1 6.1181 0.824869 19.0026
1809 1 7.59798 -15.8781 5.87207
1284 1 -5.69377 -0.435994 5.4669
1786 1 20.3345 13.5607 19.547
363 1 8.193 -2.98016 5.14837
239 1 8.63384 12.6871 4.80833
740 1 -3.38034 13.5189 17.9558
30 1 9.6922 -14.9514 -21.5103
1687 1 -5.13765 11.5759 31.9571
1290 1 -2.9545 -1.29383 6.24648
599 1 8.5592 11.8259 -8.04814
1570 1 -2.41425 12.8486 5.5743
1922 1 -3.11674 -1.38661 5.08794
382 1 13.159 -2.11744 5.46376
1237 1 12.1094 25.9257 5.41079
850 1 0.996685 0.745795 21.4649
1936 1 1.38622 0.748585 20.2421
1277 1 16.9645 13.6832 20.8295
1573 1 2.81235 0.0944644 -8.5669
1532 1 17.658 1.41238 8.67045
982 1 3.881 14.2212 8.08496
1477 1 17.3285 15.2516 19.503
1663 1 16.9617 0.589131 -7.64242
1631 1 17.7965 1.38899 -6.94923
1489 1 17.7169 2.45122 6.85551
1421 1 5.15028 16.4496 -6.09
1490 1 18.739 15.7156 6.29856
1762 1 -5.85834 14.7243 -6.97197
1439 1 20.0215 14.2968 20.5036
227 1 -4.6342 13.1666 19.8711
2016 1 11.232 14.3473 21.033
95 1 -3.27617 14.6491 6.24197
538 1 -2.44026 27.6526 -7.99372
1883 1 10.7803 13.5886 20.3311
360 1 -15.9556 1.61981 -7.52773
38 1 12.342 0.27244 -6.17882
1282 1 13.4033 -13.8641 -6.95641
991 1 14.0697 14.3621 -6.79494
262 1 0.460178 0.118055 -7.75299
1619 1 -1.41337 2.20516 6.46532
1506 1 -1.66207 14.6665 20.3662
1244 1 0.117384 14.9821 5.94603
1970 1 -25.3979 0.39599 21.0733
736 1 2.258 15.1529 -5.80657
689 1 0.684379 15.4697 7.03462
836 1 15.7853 3.01066 8.13385
2038 1 3.41196 15.6464 21.6384
754 1 16.3534 15.8522 -6.43792
1480 1 -7.0325 29.2777 19.4851
425 1 4.91631 3.42798 -7.55279
1775 1 16.8227 16.2868 19.8951
1974 1 19.242 4.62684 21.4873
1106 1 -6.74752 4.08246 7.25062
1734 1 8.322 17.3957 7.69885
503 1 -4.70639 15.818 5.64884
778 1 -7.42147 -12.0927 6.74988
901 1 21.4494 15.3752 -7.77105
890 1 -3.03693 2.35656 5.84216
32 1 8.50851 -13.244 -5.33763