ITEM: TIMESTEP
155000
ITEM: NUMBER OF ATOMS
2048
ITEM: BOX BOUNDS pp pp pp
0.0000000000000000e+00 1.3679807573413575e+01
0.0000000000000000e+00 1.3679807573413575e+01
0.0000000000000000e+00 1.3679807573413575e+01
ITEM: ATOMS id type xu yu zu
774 1 15.5516 0.804841 14.6775
139 1 13.4309 14.718 -13.8558
1781 1 2.69484 14.984 0.725086
700 1 15.9036 1.66403 1.48239
530 1 13.6175 0.013734 15.6912
726 1 3.05299 13.0346 0.341352
103 1 -23.4064 -12.6858 0.850773
773 1 3.08603 0.318921 1.34011
1196 1 -7.8988 15.5647 0.0804609
1395 1 4.48155 27.1113 16.0957
1782 1 -7.56641 27.775 29.062
579 1 21.7244 0.302054 0.189259
983 1 20.4058 15.024 15.8327
330 1 19.6687 1.54996 2.78359
1514 1 8.45643 1.33691 13.5198
312 1 7.65443 1.63108 16.3157
1531 1 -3.89409 1.36699 1.207
1901 1 9.36077 15.4758 27.5121
695 1 24.1352 14.3599 0.452441
795 1 9.40292 -11.7764 2.56757
1138 1 -1.30219 0.388369 -12.536
269 1 -1.86199 0.506604 -13.5227
901 1 13.5587 14.6831 1.73701
1839 1 10.6959 -13.5769 13.1212
706 1 10.7415 15.6863 -12.3675
307 1 -0.241922 0.541581 14.568
1544 1 13.8699 2.12094 15.0381
1272 1 1.14378 1.95843 2.44225
573 1 28.5135 -12.1194 1.42447
1720 1 15.0658 18.3087 1.53549
32 1 15.2228 -10.143 0.289105
1822 1 2.60294 2.38436 14.1792
346 1 3.93061 -10.0017 -13.1307
98 1 -9.88956 1.9254 0.430046
651 1 2.22842 15.7836 -10.9329
941 1 3.75655 0.0815578 13.8581
347 1 5.10201 2.40526 13.2491
1492 1 32.3356 -24.0432 13.8194
737 1 -8.70797 14.3053 29.2684
1818 1 7.43378 1.6038 0.849443
698 1 47.5215 28.3727 0.252799
214 1 19.2033 15.3012 1.67743
999 1 -4.28409 15.9785 1.15818
788 1 20.9474 2.3778 15.2381
886 1 8.26857 16.089 -12.4841
990 1 21.6123 2.47022 -13.5515
882 1 24.7536 2.99641 14.4265
1564 1 10.1931 15.0243 15.8314
35 1 -1.63569 -25.1278 -0.219678
9 1 12.9651 16.0519 0.416949
255 1 12.3478 3.2669 14.0816
1088 1 0.425036 15.6748 0.224378
489 1 -12.8467 3.79739 0.953969
1105 1 2.57354 -10.2965 -13.4617
836 1 16.8125 5.51314 -0.25821
1513 1 4.25106 4.51862 29.5786
1764 1 -7.81628 16.4948 -13.2273
1386 1 5.1949 -9.30672 13.5225
1745 1 4.82534 19.0343 13.7746
1843 1 19.768 2.50193 15.192
1106 1 -6.97488 3.34123 1.42619
575 1 8.63189 3.27145 14.1859
443 1 9.09557 17.2833 -14.4372
1335 1 7.4683 3.52394 14.3855
1185 1 -17.2324 4.49713 -0.276312
1607 1 9.71938 3.55974 28.2541
1146 1 -1.86181 15.9521 14.867
435 1 -3.48531 17.0691 -0.0198423
44 1 -0.541518 4.12004 1.61019
522 1 0.42491 18.7526 14.9587
1969 1 14.5291 18.9691 13.8204
1341 1 28.8593 5.6366 1.0381
1718 1 28.3942 -7.0914 14.9821
1669 1 -12.8445 5.44731 -1.02313
1159 1 -9.97305 -21.3572 15.1402
383 1 15.6857 5.28484 2.00705
27 1 3.10486 -8.60839 -11.8235
1352 1 -10.5148 16.8486 1.52718
1555 1 17.4787 -8.40152 0.678764
69 1 4.67291 5.42092 -12.2093
1616 1 5.56473 5.09565 0.998513
933 1 4.98645 6.36334 -9.47657
1879 1 20.7052 5.41866 13.0144
369 1 7.39503 4.94702 14.5118
1100 1 6.99473 4.16426 13.5718
926 1 21.6036 18.3709 -0.164703
1086 1 8.21665 4.31808 0.971254
763 1 20.1675 -9.42194 -12.9189
611 1 -3.68772 4.65138 1.13827
155 1 24.0211 5.7072 -12.4484
972 1 -17.1805 19.8497 13.3178
1170 1 11.71 4.54805 0.482018
1433 1 11.4418 5.9814 14.3174
623 1 24.1294 -6.92566 1.57651
1944 1 13.7376 19.6916 0.53044
1596 1 13.1491 5.28324 1.52764
1108 1 13.7304 -9.31971 0.479243
597 1 12.2536 4.03306 -0.329702
1351 1 -13.2979 21.3461 14.848
979 1 14.8121 20.0822 14.0168
1016 1 15.413 7.41767 13.6137
1173 1 2.7787 6.11617 1.84917
832 1 16.5894 21.1415 -0.0424786
757 1 1.9736 6.5803 -0.606673
1477 1 18.0478 20.492 14.7602
404 1 4.26838 7.37556 13.7785
545 1 -6.88897 19.7284 0.949555
1055 1 4.98904 -6.13252 -14.283
258 1 5.62003 5.98625 -12.4175
655 1 6.22597 17.9171 -11.8512
1755 1 4.5915 35.6905 0.0108379
1495 1 8.64137 18.8545 -13.3744
501 1 -7.60255 19.6443 -13.5109
2041 1 20.7519 6.82208 13.7541
2010 1 23.5925 20.1323 0.641407
125 1 -6.05551 6.26941 -14.4249
1604 1 9.46818 21.1573 14.5423
998 1 -4.74591 20.2989 0.216201
1109 1 24.5406 -6.66161 0.321104
1853 1 9.48727 8.3711 27.4747
1460 1 25.6805 6.77085 14.072
872 1 -2.30542 -20.9597 -0.315683
39 1 12.6242 5.43916 0.577694
60 1 11.4654 6.92478 1.34461
138 1 13.1328 7.33601 -12.7858
1434 1 12.6563 -5.09881 0.973803
2002 1 -14.6502 7.67049 13.6145
721 1 13.1824 22.9067 14.1808
525 1 0.345343 9.45957 2.22365
1484 1 1.62061 8.74546 15.3278
750 1 3.24688 6.83528 0.995636
1400 1 2.59355 7.79404 14.7233
1927 1 2.48819 9.10592 14.489
1200 1 4.44595 -6.13206 15.5622
424 1 -8.58415 7.58699 0.78152
232 1 3.74287 21.9464 0.966136
1964 1 6.01822 6.91693 14.5822
1686 1 20.4725 8.14063 0.362406
1744 1 -5.10558 8.31262 14.4906
1907 1 22.3326 22.4081 -1.81905
419 1 8.44313 8.58186 -0.679833
108 1 7.77587 7.63765 13.9388
370 1 9.87546 23.1024 0.154063
715 1 10.255 8.05519 -0.766012
373 1 10.555 9.11538 14.8187
1230 1 -3.76186 8.24181 14.9228
288 1 10.9971 -5.87343 14.9152
920 1 12.4515 8.06869 1.86792
1487 1 -2.23256 8.8867 14.4157
61 1 0.392664 9.12038 1.09011
1693 1 26.6875 10.0471 16.2765
733 1 14.5821 10.0231 -12.2667
420 1 0.387865 24.7148 -12.4282
1912 1 1.99563 -3.99724 15.4578
1369 1 2.86338 8.65964 1.932
604 1 16.8285 9.7193 15.1013
1865 1 3.56103 9.32746 2.44369
608 1 4.10306 8.6719 15.5209
549 1 -10.6394 -2.84544 1.55852
471 1 -8.37552 -3.1301 -13.3484
934 1 5.87548 8.52702 0.543561
102 1 6.89155 22.917 -13.7074
451 1 -6.92796 -4.28889 1.04161
1300 1 6.67997 -3.42065 14.0336
1756 1 20.0485 22.7844 -1.02512
104 1 9.2882 -2.59668 14.2831
357 1 21.798 9.51968 1.19427
696 1 8.61767 -3.1717 1.11826
388 1 -5.261 24.468 13.2578
787 1 -4.51234 -4.50371 0.966954
625 1 -3.99154 10.1269 14.6302
87 1 -3.46708 10.6379 13.6654
395 1 -2.36504 10.0573 1.24649
690 1 12.3277 9.65075 -12.3598
1250 1 11.7413 -2.79653 26.1565
1260 1 -0.382589 10.4745 14.0286
485 1 -0.913099 -2.78106 1.50747
859 1 15.2525 -3.75266 17.7898
120 1 14.7522 -0.690378 1.76548
208 1 15.1918 -3.18869 -1.41145
1515 1 3.3761 12.4098 1.22033
1053 1 15.5689 -1.37406 1.55964
938 1 14.8448 12.2325 14.3253
88 1 3.88238 -2.50365 2.25331
1810 1 5.14681 11.4327 15.5008
482 1 5.30113 12.5692 0.290987
943 1 -7.72766 -1.56993 -12.682
987 1 7.16192 11.4378 -13.1031
1987 1 -5.92071 11.6623 12.8043
400 1 -5.43128 13.0391 13.349
1813 1 -4.29212 -1.19517 -0.00962769
1615 1 -3.23958 -2.12155 15.4871
397 1 10.3366 11.9067 13.914
1455 1 -2.28011 12.6555 2.8619
1767 1 10.4234 24.5251 28.3558
1360 1 -1.38657 -1.94463 0.749478
1956 1 -14.3298 -1.1587 14.2596
441 1 -0.365001 11.5091 -12.995
272 1 0.243016 -1.41156 1.2633
1770 1 14.4676 -0.699289 13.8219
1965 1 1.50446 28.1061 13.3957
1442 1 2.27072 12.8429 13.1119
1976 1 16.4988 15.6422 13.3016
710 1 1.92646 12.8313 0.453821
1426 1 17.6069 13.3228 28.5852
1006 1 -9.37051 25.7528 27.4503
1527 1 5.90149 13.4528 0.592423
1451 1 5.28032 -0.418576 1.5018
568 1 20.1286 -1.56319 -0.0595932
1443 1 5.74337 25.9992 15.6154
1758 1 7.89782 27.5929 -1.08068
1361 1 7.40134 -15.1538 -0.0544644
291 1 -4.50546 14.3196 0.610153
1886 1 8.50084 28.3373 15.9163
1835 1 -4.92121 0.236335 -0.504891
1101 1 9.95449 1.20269 13.1015
1570 1 -2.63924 13.3334 0.246402
1183 1 -18.1301 -15.5142 14.9549
412 1 24.8576 -0.0624835 -12.4712
1428 1 11.5432 12.7232 -0.615537
1357 1 -2.37715 12.0641 1.68841
592 1 -14.8821 12.3907 -0.315187
1414 1 -1.65889 12.954 0.45674
41 1 -0.744132 -13.6887 0.0259406
1997 1 -11.8131 14.6222 15.9947
1511 1 13.7207 29.869 2.63684
1643 1 1.07134 -11.6826 3.53353
994 1 0.39403 0.023039 2.94148
602 1 2.96607 1.71355 3.47484
1872 1 -12.332 13.7452 2.69371
261 1 3.44896 13.3434 2.21469
1792 1 3.91977 27.9969 15.7378
371 1 -11.1676 13.6826 2.58489
1765 1 3.51642 14.1503 16.8053
685 1 -9.16518 14.3434 2.98121
160 1 5.52699 0.627727 3.24928
766 1 6.56683 12.9302 1.77081
1658 1 5.23592 -0.235874 17.4214
1532 1 21.234 0.663544 16.8055
280 1 6.76972 14.9438 3.65836
1891 1 -5.14943 1.33424 1.17396
543 1 8.88699 -13.5172 15.2698
1071 1 35.8057 2.06053 15.8437
1032 1 -3.48843 1.13512 3.60603
615 1 8.52853 1.09049 3.2822
1163 1 -3.23263 14.1774 -9.32216
1561 1 -1.77143 12.9697 15.6516
1014 1 11.1452 0.956129 1.9173
2013 1 10.646 13.2275 -11.6105
1229 1 11.7931 2.1287 3.36356
1507 1 -1.94498 13.8174 16.3705
237 1 -1.01843 -0.508874 -11.0148
765 1 2.11265 15.5834 17.8581
566 1 15.7377 -9.96006 -12.1561
1403 1 1.55129 16.4916 3.09495
1621 1 -9.57346 -12.2727 17.4501
1004 1 2.5715 16.9244 16.7455
358 1 3.03844 1.37211 15.8934
459 1 17.0631 2.47999 16.0144
1441 1 -8.73444 -11.9864 -10.5789
176 1 3.97738 28.9942 16.3011
111 1 5.60207 15.2035 -9.75955
704 1 18.362 2.27155 2.15869
1267 1 6.4372 16.8429 -10.2629
2018 1 5.46736 16.2549 17.3147
1153 1 19.9395 -12.0034 0.953017
701 1 20.7353 2.31516 17.1187
744 1 6.93481 3.59846 16.0663
1077 1 8.25355 -11.4846 3.51881
105 1 10.2885 2.91124 15.3509
234 1 -2.30821 16.7047 1.73215
1682 1 24.6888 15.9185 29.8576
1320 1 -1.34813 3.11773 3.42277
853 1 12.1417 1.42346 0.762679
1622 1 1.29699 16.4316 14.6626
881 1 1.36671 3.28632 2.10612
1608 1 -12.6144 -8.84293 16.2893
1714 1 29.5094 2.72793 15.2685
511 1 13.9698 3.23423 1.70367
1066 1 16.793 -11.6323 1.38328
317 1 2.68068 -9.384 3.35252
1176 1 18.0751 -10.9046 16.6691
1407 1 4.81339 2.35093 27.8844
754 1 17.8667 15.2604 -12.0571
150 1 4.51134 16.9661 -11.5884
1450 1 4.6213 4.22496 3.36163
1457 1 4.58627 31.8306 14.6651
1537 1 19.1517 -10.1065 14.7453
1618 1 6.62954 2.50147 29.7805
1178 1 9.07149 2.93044 15.5626
1281 1 -5.60197 -10.1782 1.98066
279 1 22.9234 -9.78751 16.0899
1730 1 -2.36661 3.18732 16.5534
939 1 -2.97139 3.98575 -12.9346
1830 1 10.2552 -8.17097 16.9738
718 1 -1.65721 15.3492 16.0813
122 1 10.5687 17.8815 -11.7405
1000 1 -1.86235 17.4389 15.0474
2048 1 12.1966 16.6916 16.0759
418 1 13.8279 16.6701 28.1259
654 1 0.987719 32.9681 -11.7253
479 1 2.62236 4.47539 1.17957
1701 1 0.936718 19.5982 2.94687
1255 1 -10.8103 5.60644 14.5899
456 1 2.19444 4.28757 2.37074
729 1 17.0514 2.61412 17.0632
1054 1 18.4683 -8.52931 2.91121
249 1 3.33885 17.8098 2.68592
1065 1 -9.70115 2.66151 1.27391
170 1 18.8201 4.15278 -11.8406
477 1 34.2551 18.3082 16.2719
140 1 17.5157 32.3173 3.37961
1503 1 33.1078 16.8127 15.9561
1738 1 7.4201 4.99461 17.1985
363 1 7.47728 4.28065 1.741
1648 1 9.65291 5.44734 14.0197
683 1 7.66465 4.19039 2.98853
2040 1 9.9573 6.18039 15.8893
1279 1 -3.24412 32.5446 15.8523
1482 1 -1.21818 6.23497 1.199
1554 1 25.1175 -7.8096 15.4489
849 1 13.2489 -8.18124 2.73758
1001 1 0.0785187 4.76799 2.21717
405 1 -0.172738 20.0159 -12.094
1462 1 -1.37805 5.81723 -11.4915
1383 1 0.865704 7.01257 29.7325
748 1 -11.8317 6.35325 2.15382
1587 1 15.0668 -5.83964 15.5006
134 1 2.16053 20.1784 -12.5747
1919 1 16.9948 -6.22942 3.5815
1453 1 -11.3452 21.1108 1.9396
1807 1 2.91346 -8.47453 16.5359
567 1 3.02659 6.25338 16.5473
1044 1 3.67283 6.94522 16.0449
1124 1 3.40173 7.74253 29.1774
1733 1 3.83288 33.0156 2.59391
1814 1 4.84279 19.7264 15.9697
1297 1 5.77346 5.19986 2.18231
230 1 20.8566 5.7986 16.3107
75 1 -7.33803 6.19172 2.07036
1251 1 -5.38786 6.13404 14.7897
703 1 7.76728 -8.41804 1.8405
879 1 7.73677 5.86909 0.238717
1394 1 8.90019 -6.76561 29.3357
1208 1 23.6992 7.52542 15.7243
843 1 36.1518 5.11744 15.5571
1726 1 -2.31174 34.961 29.5749
1665 1 11.5783 6.54632 2.57777
1392 1 11.0481 7.77233 17.0884
993 1 0.00589761 6.58119 -10.9337
1884 1 13.4809 21.2375 15.7726
1858 1 12.3193 7.07068 1.98529
814 1 1.00438 -5.75442 -23.8286
930 1 -13.2824 22.1916 15.6047
826 1 12.9735 -4.62454 1.83525
809 1 -10.9363 -5.69999 2.68133
243 1 3.21816 -5.06491 -10.3348
610 1 3.86267 -5.50132 2.69787
222 1 5.0591 7.04966 2.56908
1899 1 -8.56729 -5.09741 28.6446
1938 1 5.6163 6.99689 17.3041
366 1 -7.49421 7.91153 2.80473
1548 1 -8.23793 -19.644 1.6903
460 1 7.24639 -5.54737 15.94
1431 1 6.55607 8.36644 15.1248
1857 1 7.06661 -6.26314 14.8939
476 1 -7.68986 7.09346 2.15866
614 1 8.24965 7.43156 15.0746
368 1 8.92354 8.21997 1.77396
1195 1 10.473 8.32275 29.7557
195 1 -4.71286 6.78998 17.0078
1417 1 11.6181 -18.7896 15.4226
1350 1 -17.0058 10.1224 15.4074
1226 1 25.0319 8.95346 4.04994
860 1 11.4669 8.75388 2.88727
1347 1 -0.624818 8.35483 2.76374
244 1 -15.3822 9.42547 2.33454
145 1 1.30691 23.3019 16.5171
636 1 1.20946 10.9537 15.6896
627 1 1.6459 8.69479 2.63692
781 1 17.9984 -16.379 1.19632
692 1 2.83963 -3.52763 2.31488
3 1 2.54457 -4.30454 2.92081
135 1 -22.4105 22.9898 27.474
1512 1 5.11415 -5.23516 15.985
491 1 -8.63999 21.5886 -10.1953
335 1 5.91489 -3.69351 1.09992
1430 1 20.0095 10.2313 -11.6617
50 1 7.21451 -4.5228 1.89687
1772 1 -4.86574 -4.16782 1.90074
434 1 7.46985 10.1913 15.7129
1924 1 -4.17521 10.7712 15.6203
1003 1 8.12921 22.277 15.8822
929 1 -4.03541 -2.6153 2.93115
86 1 38.2273 -3.94337 4.46829
1990 1 12.853 9.70603 3.63315
1225 1 11.1379 10.9407 2.36522
1332 1 12.195 -3.01964 14.4229
813 1 -16.0371 9.86085 17.0923
1365 1 12.3447 8.5733 3.63612
713 1 12.0654 24.1756 2.45404
1957 1 0.894114 -1.78996 1.98978
458 1 0.220458 23.8682 3.17541
1633 1 -0.197101 -18.9324 17.3977
162 1 1.78086 10.5543 -10.9035
565 1 1.79712 12.8352 2.66215
428 1 2.34682 25.1796 1.89798
828 1 4.07575 13.1149 3.32095
742 1 5.14434 11.1207 -10.7849
1837 1 -8.55946 -17.0637 29.2878
560 1 6.1518 24.8362 14.4621
438 1 20.7608 12.236 3.03014
675 1 6.91207 24.5458 -25.9256
1355 1 -6.05363 -3.33813 28.1141
1546 1 6.17287 -2.34844 15.8916
1438 1 21.7688 25.0073 1.11131
167 1 -5.64987 9.7278 3.14528
584 1 8.41049 10.5471 -11.509
1343 1 9.31921 11.8509 2.28155
1058 1 -1.83259 11.6985 16.2978
822 1 -16.3426 12.3663 3.82301
1943 1 -0.148317 11.6068 15.6768
1116 1 -0.63445 11.066 2.82907
1518 1 11.5696 24.7939 28.7364
847 1 -13.5387 -0.41857 14.6489
1366 1 15.7887 13.4966 1.71996
1945 1 14.5403 0.497294 1.69466
92 1 14.0574 11.2426 -10.644
958 1 13.8986 -0.952663 2.31422
1798 1 0.818631 -13.2995 14.3821
1723 1 1.96224 13.2919 17.2301
1243 1 3.61074 12.298 4.53414
6 1 2.34547 0.177321 14.1034
661 1 2.79529 26.2189 2.14683
253 1 -8.89988 12.4184 2.71205
1026 1 -20.5051 -0.993716 0.764494
976 1 -5.76292 12.4319 -12.7465
1309 1 7.38475 -1.23461 15.5861
262 1 7.24747 0.0116722 -11.7402
1809 1 8.37671 -14.466 1.64912
1806 1 9.45521 -14.2915 1.7334
1194 1 7.9758 27.7152 14.8668
1174 1 10.0692 -0.253752 14.491
1890 1 9.96803 -13.2779 1.70252
84 1 9.04867 -0.362529 0.663983
686 1 -3.44488 12.5374 14.9691
637 1 -2.42433 1.67547 4.0905
544 1 25.1087 -12.4925 3.14027
239 1 -0.874907 12.9967 1.50236
1192 1 26.6773 12.1858 16.563
1209 1 -1.04575 0.388576 2.19386
74 1 -12.7779 12.7434 16.8702
815 1 -1.04826 1.81164 3.81289
1709 1 13.4519 0.953462 -10.8191
116 1 17.0767 27.9218 5.23854
855 1 2.11079 -0.471779 18.2592
580 1 3.93508 13.995 4.02743
520 1 -9.20441 -14.0164 4.88147
804 1 4.86995 0.76739 17.6421
488 1 -8.62149 13.8212 5.79197
48 1 6.32245 13.9479 3.83576
225 1 -19.6197 -12.3839 3.96636
2033 1 8.33605 14.1833 4.3147
1316 1 -6.30816 0.0142989 3.9637
267 1 -5.19026 1.70433 4.5912
1197 1 9.77611 28.2708 5.32735
436 1 -18.9965 13.3284 3.54337
1708 1 -4.3023 14.0949 2.59449
1412 1 9.29907 13.9066 17.5134
1122 1 10.0333 -0.105916 16.9426
1502 1 10.2905 29.0125 18.4012
51 1 -15.4697 16.3103 -9.07563
974 1 -1.14061 13.972 3.38293
557 1 13.8615 1.9048 -8.84551
767 1 -0.839021 14.3586 4.2832
1789 1 -2.37107 13.8297 17.3198
961 1 0.691246 31.2357 2.58468
100 1 1.08253 1.5883 -9.14851
448 1 16.7986 1.29087 -9.28705
694 1 1.86414 14.9432 3.29537
107 1 15.6938 0.622497 4.78415
1215 1 18.0772 16.5183 -8.36698
2028 1 3.69559 15.8986 4.42429
381 1 4.63634 1.81631 -9.12603
90 1 4.45666 -12.8363 -8.71652
2038 1 5.45741 15.7395 32.3841
2037 1 20.0295 15.2307 18.2357
687 1 18.8803 3.25693 19.5354
1678 1 -7.92105 0.666141 4.56515
1961 1 7.72549 2.59744 18.1644
1929 1 -4.24865 14.715 4.3253
612 1 -6.07843 2.93653 2.90589
1327 1 -4.54315 3.04478 5.31616
413 1 22.929 1.80965 3.75954
778 1 -3.50699 -11.533 16.9216
1585 1 8.52975 15.0534 19.1739
18 1 -3.43589 17.1932 -10.6653
1199 1 11.1019 2.917 3.85996
1640 1 25.7837 3.68255 4.37713
1580 1 26.2635 3.05878 15.039
305 1 13.7942 2.18829 -9.90948
327 1 -0.840154 1.85093 1.75184
942 1 13.0038 1.84606 2.73763
1463 1 14.0488 19.4612 3.92804
1416 1 14.7532 4.21009 3.4917
313 1 28.1656 16.6231 3.99286
493 1 15.3667 16.8575 4.63734
453 1 -9.98062 17.4284 3.6627
446 1 17.3551 3.35436 -7.71402
1496 1 17.3368 4.3005 18.9753
577 1 5.46713 17.2419 3.41621
601 1 6.24056 2.59924 4.42992
1646 1 6.53587 -8.49905 -9.12074
749 1 6.4051 1.28668 5.79191
722 1 22.5587 16.5021 17.9978
1205 1 9.19583 16.4652 16.9254
235 1 -6.22232 17.3182 -9.54501
226 1 -17.9132 18.5476 2.89959
747 1 -4.25375 3.87496 3.56403
114 1 -2.3791 18.4734 -12.1709
1098 1 11.9381 4.48025 3.31093
467 1 -0.743657 4.45814 -10.9618
129 1 25.9457 4.78001 1.74852
1497 1 13.1643 3.46117 2.7207
1609 1 2.02672 5.74579 16.7894
270 1 14.5673 -9.1652 -9.13726
1904 1 1.24128 18.8556 17.4413
693 1 0.0317119 -8.83936 -10.2871
1353 1 -24.1411 -22.7893 4.22385
811 1 17.9789 -21.334 3.47246
444 1 -11.7652 -9.53179 4.16831
1039 1 5.14382 4.72985 18.8377
158 1 4.37545 -6.53806 3.329
1529 1 4.01319 3.29691 4.49199
1475 1 -9.42177 4.56256 18.0218
540 1 6.34199 3.82338 4.52148
1292 1 19.5401 4.52852 30.3078
1398 1 6.72536 5.15505 15.2341
99 1 6.63662 -9.36221 -23.6637
909 1 7.72801 18.3838 -9.00632
1576 1 -5.36318 3.3674 3.51722
1437 1 22.4599 -8.48878 4.56377
666 1 -4.94473 17.5505 4.47302
1221 1 8.61803 18.3635 3.68346
1331 1 -5.76176 -7.53773 3.41849
1974 1 23.818 6.39534 17.686
1233 1 22.5957 -7.78257 -11.0746
1787 1 12.1719 5.5478 3.50347
1697 1 -2.33123 5.40568 2.73457
1676 1 -2.11489 4.07471 16.0549
144 1 -14.704 6.51919 2.89289
997 1 0.925503 34.205 3.50551
741 1 15.9072 20.56 17.1522
1653 1 2.13673 -8.61004 18.4606
487 1 1.70872 7.54948 -10.9183
1716 1 16.3014 -8.24393 3.88612
1236 1 2.00835 22.3195 5.15608
1415 1 3.39179 6.47606 3.89732
607 1 29.6172 8.04338 4.05708
884 1 17.6504 -6.7609 4.71207
1623 1 17.8392 8.22207 17.8429
1491 1 17.9983 9.08276 30.8118
408 1 19.8573 -7.39604 -9.23
1982 1 19.3052 5.83533 16.7318
198 1 -7.1199 19.2177 3.38889
1881 1 7.96714 20.1961 16.1188
377 1 35.5837 5.21316 2.91526
1349 1 -4.54595 7.95068 16.6823
944 1 9.1097 7.6062 4.55654
1578 1 24.7707 -7.47753 4.78737
906 1 -3.1681 20.6003 2.66819
667 1 10.9235 7.12391 4.3544
1043 1 -1.46343 -6.10712 2.86041
1432 1 12.2067 20.5695 -9.93334
1719 1 13.8535 7.45155 -9.61692
876 1 13.2128 33.8158 3.89036
854 1 1.69026 -7.02107 5.4018
1312 1 15.1825 7.16641 17.9225
202 1 3.75558 -4.46919 4.45414
1452 1 15.7069 9.90166 4.99528
846 1 18.3213 -4.257 2.43521
1724 1 20.7967 20.5863 17.6763
26 1 20.5908 -5.22235 -8.4419
376 1 18.8213 8.82456 17.9008
1282 1 6.29525 -19.7098 -9.92993
949 1 -5.80148 5.68556 4.43001
297 1 7.65891 -5.41113 1.28753
1712 1 -5.36598 7.60889 2.46417
1801 1 -5.16394 9.94064 4.86156
1344 1 20.8072 -6.66108 2.06737
73 1 9.37002 22.0239 -9.72514
320 1 -3.61567 7.45063 3.5628
1408 1 8.81398 8.94912 16.636
760 1 10.0873 9.01512 17.9201
1778 1 9.99214 22.9524 3.16812
2042 1 12.7749 21.3653 17.7793
1639 1 27.5651 7.51349 16.644
1541 1 0.695716 8.3159 4.32038
1436 1 28.4347 11.2749 32.4733
240 1 13.0055 11.4238 19.0131
1624 1 0.459746 -5.00696 16.6702
1073 1 13.6042 9.34416 -8.46281
1385 1 3.26481 9.66595 -10.1298
224 1 16.7146 9.61952 5.24834
221 1 16.3412 9.16479 4.26922
1543 1 -12.7176 -3.4637 4.91374
483 1 3.43049 10.2215 4.42104
1375 1 16.8561 -18.7436 -8.52657
1940 1 19.0102 9.06948 3.20942
1946 1 32.9414 9.29604 1.9183
259 1 -5.73539 38.0595 -10.4155
1838 1 7.79003 9.9448 -9.50485
1203 1 6.41096 9.00892 3.31318
1402 1 21.1445 -4.75667 16.6619
1826 1 7.41725 20.951 16.8459
1827 1 -5.57378 21.8473 16.965
1550 1 22.4423 -3.21136 3.84919
402 1 24.6223 9.5281 16.0292
1707 1 9.84051 9.06838 2.07747
536 1 10.5668 24.4071 18.5828
301 1 11.2769 8.1081 18.8314
669 1 -4.58582 -17.9246 17.4733
1972 1 24.8026 -3.03657 17.691
1698 1 -3.1837 10.3666 16.5846
521 1 11.7735 9.25953 5.10779
1447 1 14.5369 9.07853 18.5782
216 1 12.198 10.0293 4.53378
1689 1 28.15 -2.86089 17.5101
1293 1 13.8822 25.659 3.68711
171 1 2.40717 24.3591 18.0349
1727 1 16.8027 -2.8131 3.40279
1214 1 30.7885 38.666 4.38115
284 1 15.3976 -16.1271 17.4674
1074 1 2.7853 11.7108 -10.6332
954 1 3.67684 12.1895 -10.7252
1064 1 4.02906 10.2066 1.96388
724 1 4.30321 11.2128 17.2719
1112 1 -8.01014 -3.53994 2.7838
1650 1 5.01015 10.8232 19.2604
924 1 6.06056 -2.85615 17.1796
1435 1 -6.77123 10.2553 3.07429
524 1 -8.12532 -2.86137 4.49657
1339 1 21.7114 -14.7378 2.84736
1728 1 7.15577 11.2698 16.331
900 1 8.21181 -2.03601 15.7754
1262 1 -5.21666 -1.64682 17.6436
591 1 9.15467 -3.59448 2.88898
1271 1 12.0385 11.0324 18.1194
227 1 -4.14957 11.2798 17.6537
1152 1 12.0852 10.6223 17.1906
231 1 -1.94021 25.2895 17.302
1305 1 -14.9314 -1.68673 1.68786
1045 1 13.9529 9.65766 4.15602
333 1 29.0666 -2.08582 2.73876
1036 1 -0.228644 12.9767 3.48548
1594 1 14.8101 -1.727 4.14188
153 1 5.88348 13.336 -11.1254
699 1 2.54552 0.60431 3.77737
532 1 16.8106 -0.388334 4.2863
1061 1 2.09816 -1.41222 3.64669
1867 1 5.77609 12.2681 2.98407
1533 1 18.2204 25.8061 17.5962
981 1 33.7994 14.1679 -10.9685
1307 1 6.23669 12.9582 3.45842
1232 1 6.61759 25.7363 17.7584
863 1 8.2052 13.6149 2.58282
1752 1 21.9324 -0.674375 4.57966
1922 1 -5.03459 -2.08078 16.6998
1242 1 10.0894 -1.13152 16.4727
1825 1 -17.9886 -1.05852 3.53633
77 1 11.9396 -0.504893 4.50801
384 1 -3.04239 11.5434 3.02985
1099 1 10.4209 -14.2 4.1248
468 1 -3.00329 14.1662 -11.0477
349 1 12.2867 -0.853912 17.2697
1753 1 0.175197 14.8776 3.81604
1131 1 2.04843 1.89679 -7.2736
550 1 1.55989 -12.9518 19.4354
1220 1 14.8764 27.7494 17.3639
166 1 -11.9744 0.27186 20.3984
278 1 2.99759 -14.4116 3.22182
515 1 2.98079 0.033396 20.2196
1949 1 17.1393 12.1007 5.90509
578 1 3.97041 13.8739 5.98896
1626 1 17.2233 -14.2447 19.0428
1915 1 20.1288 0.331934 5.32469
508 1 7.90518 14.2121 20.2561
714 1 -6.59336 13.3532 16.5325
81 1 8.96052 -1.62124 5.04041
1942 1 9.33469 15.7356 6.34162
1836 1 9.33998 -0.600031 4.54146
112 1 -2.31622 15.7011 5.2246
115 1 9.81051 12.6064 20.4037
868 1 -3.67699 0.221872 20.056
130 1 -2.28062 3.38252 -8.5715
1948 1 25.9308 16.5692 32.9361
426 1 -0.0352884 28.1349 4.95958
907 1 14.2241 1.39642 5.70832
1113 1 -0.781878 29.8419 20.3164
45 1 14.6445 16.2605 -8.52178
469 1 -0.0883085 17.1351 3.65371
1625 1 0.963844 0.337962 4.89863
1149 1 1.64449 1.74212 5.44478
1790 1 2.74288 2.16865 4.8609
1504 1 28.6619 2.19955 7.12288
180 1 3.60555 -10.7921 -6.83665
1132 1 3.14656 16.129 -7.68777
790 1 4.01518 1.76727 -8.23619
1908 1 18.0265 -11.4993 6.65616
977 1 20.8081 15.6683 5.33004
991 1 18.1533 14.7636 -7.58933
936 1 4.79737 14.9572 -6.49713
1154 1 5.1704 15.748 19.6475
364 1 19.8406 2.535 5.7267
1560 1 -6.75693 0.503907 6.39531
1577 1 -6.30931 2.90183 19.8735
617 1 8.13963 2.3835 -8.17298
1466 1 7.53429 1.42544 19.8864
1083 1 21.0913 1.03579 7.29239
380 1 7.47326 -12.5358 4.99576
574 1 9.95702 3.07185 3.93837
680 1 -4.32406 1.98803 5.26004
325 1 10.3294 -10.9946 4.84239
1848 1 12.9398 16.3684 4.14936
1268 1 12.5899 3.74097 -7.81661
626 1 -0.169104 2.45729 -7.99571
664 1 13.3539 30.6418 -8.59968
823 1 1.17247 16.29 6.14262
1440 1 15.4057 3.61632 5.63581
1985 1 -13.7836 -10.3599 19.9418
1140 1 2.72013 3.13676 4.06832
691 1 2.64085 3.69282 5.97245
630 1 16.6434 -10.5397 18.8622
1028 1 2.14032 -10.9516 5.74654
595 1 33.0511 5.07374 17.6976
495 1 18.3561 3.21941 -6.92272
1046 1 5.22492 3.12962 4.68204
128 1 19.5717 2.92642 6.65935
294 1 -8.38631 17.7243 18.0464
1125 1 4.60598 3.92029 18.6993
668 1 6.39781 17.3069 5.90714
633 1 20.5984 16.7223 -8.49878
969 1 -6.45584 18.1021 5.66697
1918 1 7.90729 3.43821 5.12463
1636 1 -3.78122 4.12765 6.13884
1075 1 9.08177 16.5962 6.84844
1481 1 -5.24197 16.8993 6.14965
2005 1 11.136 6.29044 3.5378
1093 1 9.7632 -8.83949 17.9814
1597 1 11.6033 2.40561 7.1558
70 1 -3.00836 4.57835 2.88011
417 1 -4.15124 17.9306 5.03661
844 1 10.4844 -10.2199 5.60316
1963 1 13.5771 18.1847 31.6754
336 1 12.7003 18.0408 18.5996
1429 1 12.7943 4.10906 3.72692
1828 1 1.08071 18.4512 5.60901
256 1 12.8268 32.6378 -8.19225
776 1 1.36967 5.7295 18.5371
1144 1 4.2087 -8.54969 5.19697
1228 1 2.71679 4.40731 5.15455
33 1 2.48043 -7.36429 -9.18585
531 1 5.38246 5.71348 4.93198
1993 1 -7.58591 18.1763 5.2972
1078 1 21.0548 20.2695 5.01624
38 1 6.69224 7.4888 -8.90986
1318 1 6.94383 -21.6679 -8.07762
1525 1 8.32137 5.61949 5.39475
1223 1 6.78304 -9.01336 6.54197
1795 1 -5.38588 6.53544 19.6317
16 1 8.58587 4.19055 19.0475
1748 1 8.9629 6.36639 4.21689
570 1 23.2632 5.83711 4.96799
298 1 10.8859 4.27922 -7.32018
396 1 10.6135 17.6597 -8.95132
946 1 -2.19759 4.28649 5.53163
921 1 11.0366 4.01602 3.61552
1959 1 -3.04473 19.0201 4.35019
971 1 0.119344 -8.166 4.9293
1186 1 -1.70252 5.37675 6.02368
772 1 1.82748 7.72723 19.547
899 1 0.189761 7.43283 32.8602
648 1 15.7812 -6.30062 4.96287
527 1 17.6406 -7.91245 4.46578
1129 1 15.8953 -7.74471 -7.85668
1162 1 14.7724 5.84221 19.5247
533 1 3.80054 8.27663 -7.69142
517 1 4.27561 -6.35759 5.48813
1023 1 18.8251 20.3692 -8.47934
445 1 4.83658 7.96785 -7.61381
1175 1 5.7744 -5.7924 -6.86682
49 1 -4.43345 5.49372 17.4495
1978 1 6.06213 -5.29717 18.2386
1411 1 -6.03617 -5.71251 4.64098
1367 1 8.24201 8.79177 17.7519
46 1 6.5802 -7.15452 -10.6163
101 1 10.482 4.72802 -8.27931
1164 1 8.17637 7.29104 3.92644
246 1 -3.41021 5.84744 -21.614
1773 1 10.0736 -5.59964 4.72216
1996 1 -1.13375 20.3058 19.5863
1926 1 -15.3308 6.12499 18.0007
1257 1 26.5397 20.0158 18.5652
1844 1 12.7303 -8.5476 4.26042
472 1 14.2028 6.57465 4.77361
342 1 12.6807 -4.52739 4.58308
1165 1 12.7835 -4.36629 -7.72897
56 1 0.467259 22.2373 -7.93827
177 1 2.98524 -5.87068 5.64271
164 1 1.68336 -4.82022 3.71992
973 1 1.17158 -5.66754 18.8522
966 1 4.9462 21.0706 4.35375
159 1 4.75455 21.9357 18.6686
839 1 3.26171 7.74423 18.2382
1816 1 19.3366 9.29053 5.25179
1056 1 1.66507 -4.98043 19.887
473 1 6.87671 -4.50379 -23.0699
68 1 -7.74548 8.64615 6.02353
196 1 -5.9227 9.41336 -7.90353
1743 1 7.14135 21.912 3.67139
841 1 -19.1955 8.63339 -8.4779
779 1 9.12972 -5.41948 -21.9951
624 1 -5.53169 8.62922 -7.26484
1121 1 9.94822 -4.85612 5.8776
2021 1 -16.546 7.00972 19.0165
1690 1 -1.87533 7.83669 4.20281
1556 1 11.807 8.68413 19.6544
1522 1 10.8266 35.3106 6.14175
1291 1 -1.85999 -6.62143 4.97297
1920 1 13.4074 21.9337 18.4734
1851 1 -0.676173 -6.36193 5.04233
367 1 12.6004 10.2938 5.60838
1167 1 -11.0422 -1.8634 6.64575
1198 1 1.0217 23.8988 6.39148
1302 1 15.7737 11.265 5.58272
618 1 4.80437 10.0051 3.35355
1588 1 -9.74715 -16.2132 -8.05895
193 1 -8.83051 9.83674 -7.82664
893 1 2.90563 -2.97738 5.39607
275 1 5.83121 9.70001 -9.57335
756 1 3.6125 23.1923 -7.55333
1691 1 -7.84629 11.3782 5.3753
1863 1 20.5713 9.70056 32.5063
1467 1 20.3495 -3.44584 17.8723
2031 1 8.5128 10.1106 -7.46694
318 1 21.4599 -4.08679 -6.85772
582 1 -17.4165 10.1201 -9.71673
1158 1 24.0105 9.91964 5.58631
392 1 -4.22142 9.58847 5.16232
1566 1 12.927 -2.67861 31.3475
20 1 11.3261 10.1338 5.27722
1224 1 -2.9631 8.96586 5.16108
1072 1 -0.536819 -3.3066 4.72312
1784 1 12.1226 24.0849 7.763
1877 1 -0.722791 25.6784 17.9911
620 1 12.6624 -4.19391 20.6214
658 1 0.985848 13.0793 -9.45778
1652 1 -13.4467 -2.60268 4.59695
1859 1 1.60661 12.3018 18.5978
1062 1 2.55558 -1.92515 4.60453
1771 1 14.3879 12.1525 -8.15363
14 1 18.1905 -2.86034 4.54757
1010 1 -9.60168 -3.1919 6.58496
1680 1 -9.31183 9.07961 19.0668
213 1 5.71716 11.9905 -7.48222
1977 1 4.77134 9.74508 31.9399
2045 1 19.8483 12.2552 5.03605
1704 1 6.57288 -2.44887 18.3482
250 1 19.2161 11.6883 -9.69285
1184 1 7.49996 -2.77176 -9.54411
415 1 34.9697 10.4985 5.19737
1911 1 34.3401 -1.96967 19.3091
470 1 10.0817 -1.37767 -8.04053
509 1 22.967 26.6334 -7.94823
1664 1 22.3078 24.7726 -8.90479
2047 1 11.2098 25.6271 19.903
37 1 -3.84033 11.2707 -8.17917
1210 1 23.2599 10.5709 4.82477
740 1 -1.87693 12.1987 18.2021
264 1 12.6049 12.7084 5.26684
1634 1 -1.81844 11.0599 19.1445
211 1 -1.63269 14.6233 -8.22454
432 1 13.8269 26.06 4.70156
789 1 12.2758 -15.4104 6.38873
1791 1 26.5731 24.6718 6.36032
1334 1 12.7548 0.291662 19.0383
1461 1 0.113893 0.186392 17.8348
1547 1 14.4788 -12.6018 16.6074
1115 1 -0.772527 -13.2125 20.0603
423 1 16.2278 12.532 5.22429
2015 1 28.7652 13.1605 5.86785
659 1 -10.987 26.4727 6.16185
315 1 16.0091 13.6575 5.54245
1885 1 4.90496 -1.87547 5.23561
192 1 18.9923 12.5693 -9.25128
1478 1 5.98639 13.7218 33.9944
985 1 18.0637 -0.953176 5.87344
569 1 19.4944 -0.477599 5.49244
1539 1 6.24071 -0.607718 4.48546
1423 1 -5.86835 11.7541 4.95152
168 1 7.21875 -1.11557 4.91357
546 1 -3.71014 -1.84417 18.3391
1638 1 9.02906 12.7678 16.2814
641 1 8.8251 0.278891 5.39825
1663 1 24.6 1.03689 -8.42876
118 1 24.6348 -0.886713 4.9894
1370 1 -3.23641 0.0246369 5.43652
1473 1 25.4263 27.1865 5.53168
169 1 -2.61121 1.45915 6.68617
1854 1 40.2377 -27.733 -9.46808
514 1 -0.825347 1.49162 -8.39208
1883 1 11.3469 13.9425 18.406
761 1 13.5741 -0.38119 5.36607
1553 1 -0.16902 0.620844 9.48525
1760 1 14.3941 0.324145 6.16505
1359 1 -12.1136 14.2 22.6148
852 1 -23.6255 1.09277 7.05628
1177 1 16.4363 -0.305548 21.1404
1846 1 5.00988 14.0361 6.87513
2020 1 5.70499 14.9803 21.7627
277 1 3.8861 13.4179 7.36368
869 1 -7.61332 -13.6657 21.9125
178 1 19.1922 1.0249 -7.51701
1489 1 18.5112 -0.699436 7.59173
810 1 -6.79299 -0.302709 7.40789
1234 1 -3.57165 13.9756 8.21555
183 1 6.90584 -0.683522 5.72179
174 1 7.64703 13.8368 19.0676
1103 1 21.9773 0.155118 7.44747
645 1 8.76179 -13.9119 -7.14255
1774 1 9.85078 28.5196 22.4348
1869 1 9.1531 28.4367 19.8845
821 1 10.9574 15.1284 9.21887
2000 1 11.1868 14.2562 6.16971
1861 1 10.9024 15.1589 21.4607
1354 1 26.9349 1.8426 7.29938
1235 1 14.8474 1.33803 6.59094
391 1 14.1683 -12.1478 7.8657
355 1 1.47482 0.0723394 7.89976
1333 1 14.917 -10.1967 22.7261
888 1 30.2338 -12.5599 6.11234
1294 1 -12.2718 2.38332 -5.46203
992 1 18.6632 2.58656 21.4135
82 1 2.60533 0.758148 7.08568
1954 1 19.3005 1.85707 7.08789
324 1 -7.12919 2.26872 -7.08517
306 1 5.93405 -13.0052 7.33403
141 1 8.10569 15.7585 7.07367
352 1 21.4095 4.07118 -6.95268
1424 1 21.8165 1.28457 8.0131
393 1 10.3543 2.195 -6.75102
1742 1 9.64206 18.2691 7.27601
1777 1 8.69622 28.5221 7.14382
1380 1 -3.74064 1.19907 6.92413
1151 1 24.1109 3.27131 -6.95529
1295 1 12.3031 4.17823 8.88879
1371 1 -2.6095 -11.0345 -7.4614