ITEM: TIMESTEP
145000
ITEM: NUMBER OF ATOMS
2048
ITEM: BOX BOUNDS pp pp pp
0.0000000000000000e+00 1.3679807573413575e+01
0.0000000000000000e+00 1.3679807573413575e+01
0.0000000000000000e+00 1.3679807573413575e+01
ITEM: ATOMS id type xu yu zu
596 1 0.633364 14.7045 0.470881
688 1 0.00972299 12.6824 -0.3571
1528 1 0.100601 13.8959 13.1504
1388 1 -11.0779 1.71181 15.7547
1650 1 0.936859 14.5791 13.264
1621 1 -11.243 -13.3583 14.7985
249 1 3.58346 16.7703 0.659112
562 1 16.7994 -11.502 1.2469
150 1 6.73449 15.5398 -11.0677
773 1 4.14227 1.83619 0.937434
92 1 18.6841 12.9955 -12.064
687 1 17.1444 0.88743 14.328
954 1 6.94998 13.8123 -12.5428
679 1 4.7923 12.8746 -0.198971
471 1 -7.32267 1.20675 -12.3996
1708 1 -5.21798 14.3083 1.86496
745 1 -2.18306 0.191885 14.6986
400 1 -4.87587 13.8825 14.0622
1779 1 -16.7634 40.2881 12.765
635 1 25.9906 -0.110755 0.240408
1643 1 -1.24346 -14.3949 1.44241
133 1 -1.36319 14.8926 0.564906
201 1 11.4109 13.0927 -0.272626
93 1 12.341 27.372 -1.67767
1340 1 -0.984682 13.3555 26.6315
245 1 -1.69888 11.4763 -0.162065
261 1 -1.07869 14.0379 1.26406
139 1 12.4352 15.7672 -12.3306
237 1 1.04904 1.7406 -12.3982
1545 1 1.61617 13.9676 14.0541
1066 1 16.1805 -12.2795 0.766003
651 1 2.3049 16.5305 -12.1073
444 1 -10.1836 -11.152 2.20751
1515 1 1.67253 15.1649 0.189682
931 1 16.3425 16.6738 0.0799015
1441 1 -9.75201 -10.4027 -12.102
602 1 2.80608 3.70274 1.79418
2038 1 4.88222 15.127 30.2626
1764 1 -8.45054 15.5614 -13.0568
1948 1 20.7742 15.6533 28.9335
706 1 8.64453 16.0065 -12.5038
780 1 6.05824 2.32098 1.37339
225 1 -21.2078 -11.3408 0.210195
982 1 8.27195 15.5843 0.367154
1781 1 7.99612 17.4066 -0.156678
105 1 9.52106 2.43341 12.3
1157 1 9.73402 2.75602 1.58273
1901 1 7.1079 15.0675 28.0223
197 1 -3.80229 2.98011 -0.477172
583 1 10.2325 3.1551 0.663506
508 1 11.589 15.4738 14.5332
351 1 10.4121 2.17516 12.7855
1580 1 25.5628 1.67853 15.8835
1295 1 11.284 2.90407 14.6906
1178 1 11.9484 1.91806 13.3044
616 1 13.3669 0.59803 0.594344
542 1 -0.635174 1.96268 0.605885
902 1 -11.6 2.3529 0.611615
782 1 1.0532 5.19691 28.4972
1048 1 2.77009 4.20854 14.3134
140 1 16.8152 31.3789 -0.472223
134 1 4.06612 18.8975 -13.0306
1508 1 3.07933 18.7437 -0.0132262
424 1 -11.5359 4.6965 -0.198616
836 1 17.4586 4.1178 0.695022
617 1 5.97563 3.54418 -11.5342
1361 1 6.34328 -8.98102 0.615647
294 1 -6.58349 17.0732 13.6592
603 1 8.88419 5.50216 -0.285856
1640 1 22.923 3.56261 1.19883
49 1 -4.89815 3.14072 13.803
910 1 9.19976 4.24815 -14.037
1199 1 11.9558 3.72999 1.35234
1554 1 25.4884 -10.8304 15.6738
1454 1 11.0513 17.9454 14.911
665 1 24.8687 17.4452 27.7191
122 1 13.8725 16.9723 -13.3958
266 1 -0.789987 -9.44313 14.8998
409 1 39.6723 2.75214 0.341613
1401 1 15.2677 -7.05169 14.2754
1434 1 13.3269 -8.52748 1.43215
580 1 2.39097 18.284 1.86851
1029 1 1.87511 -7.98837 13.7514
1386 1 2.05764 -8.0303 15.4412
604 1 17.2847 6.03535 13.8402
1604 1 3.12461 19.1354 14.7111
1684 1 2.46945 6.25675 14.7938
1745 1 4.03724 18.8603 13.2072
531 1 4.94619 5.60447 -0.0516843
1477 1 18.3795 17.8198 14.9494
475 1 6.00749 5.58113 13.6981
1810 1 4.51265 6.27494 14.4504
1016 1 21.0632 6.44849 14.1011
1738 1 7.39435 6.31028 15.3689
1363 1 -7.99611 -9.54984 1.29972
1204 1 21.1816 -9.19408 14.1592
443 1 7.14213 19.1319 -13.6148
1425 1 9.03697 6.2225 0.480811
918 1 8.79315 18.8442 0.733444
1281 1 -5.06443 -9.5298 0.700838
1446 1 -2.7361 -8.952 13.7865
803 1 9.8246 -9.01748 16.235
314 1 11.881 4.64389 -13.1024
998 1 -2.77741 18.8465 2.02266
233 1 -1.18784 5.53811 0.945299
654 1 -1.12339 33.8397 -13.218
746 1 -0.146437 18.1109 14.0164
1313 1 -2.88588 19.549 0.050073
806 1 -0.569226 6.62852 1.39458
996 1 -0.426042 21.1498 14.3986
1314 1 -1.75662 7.41574 0.374846
1653 1 1.55378 -6.87319 15.4616
1919 1 16.2759 -6.47102 1.35582
307 1 2.53115 7.16 14.0137
809 1 -10.3202 -5.51648 0.534455
1543 1 -9.0037 -6.83574 1.63345
1703 1 -9.02797 -6.27705 0.680948
1288 1 5.3923 6.23175 15.2175
108 1 7.52451 7.21608 13.4531
75 1 -6.87743 8.63394 0.575357
152 1 6.5448 6.8077 1.49902
404 1 8.26956 6.64841 14.8187
1586 1 -4.24972 7.2383 14.1218
971 1 -3.67454 -7.20399 1.02752
1226 1 24.6262 6.28718 1.58328
434 1 10.3721 8.2935 14.3502
332 1 -4.52103 7.0771 -0.631988
1108 1 11.1708 -6.82332 -0.378815
648 1 13.8979 -6.59756 1.94823
646 1 -0.815668 7.63014 15.3795
872 1 0.294264 -19.3717 0.233068
138 1 14.9893 7.88184 -12.6759
1109 1 27.8863 -6.61773 0.856415
933 1 1.82849 9.06263 -13.2038
966 1 2.47506 22.0059 1.3088
515 1 2.82973 -4.32259 15.1669
388 1 1.8286 22.1645 15.9798
572 1 -11.8651 8.90714 -0.582457
1449 1 4.01911 9.25925 0.919157
1437 1 17.3618 -4.96423 1.76284
232 1 5.64729 21.3378 0.448223
357 1 18.6322 10.1785 1.28803
1232 1 7.27218 21.1194 14.4397
1002 1 21.0917 22.0353 15.1065
513 1 21.4207 -19.1615 0.0237145
1063 1 9.48912 8.28196 1.59294
87 1 -4.1967 9.0153 14.277
343 1 22.8595 7.01558 15.1892
1186 1 -2.39369 9.04916 1.41754
2027 1 10.3462 -4.39025 1.22709
1778 1 11.3493 20.9534 1.29299
125 1 -1.71053 9.75103 -12.2578
1587 1 12.9955 -5.14446 14.9066
288 1 13.7869 -4.2964 14.7121
458 1 -0.966506 21.7078 0.00412187
10 1 14.066 8.30418 -12.3809
1136 1 0.591776 9.22943 -1.63493
733 1 13.7601 10.9108 -13.4245
234 1 0.187995 10.643 -0.85411
1976 1 16.4656 9.13492 12.9417
1058 1 4.22851 11.0088 14.7472
367 1 15.8527 10.0064 0.882229
1652 1 -10.4871 -2.32271 0.647435
1373 1 2.97081 -3.24557 27.1953
1309 1 5.15279 -4.41213 14.414
934 1 4.47562 9.27082 -0.130248
1578 1 19.7698 -3.07947 1.05366
1907 1 21.2381 23.8 -0.431317
496 1 7.79427 8.64218 26.2682
1838 1 7.52481 9.48649 -12.676
2040 1 8.63654 9.21603 13.3533
1195 1 8.45937 8.68681 27.8511
1769 1 8.39252 23.6204 14.2378
976 1 -5.87601 10.8906 -11.308
397 1 9.49906 10.1036 14.6037
1055 1 11.09 -3.67419 -11.7672
1571 1 9.33898 -3.81429 25.489
1194 1 9.9675 24.5658 14.0968
1886 1 12.1928 25.3322 14.6852
1350 1 -15.0247 9.84101 13.645
1659 1 1.04046 9.85933 0.639133
917 1 14.2924 -1.97585 -0.293811
1484 1 0.054715 11.2293 15.6039
1091 1 14.7589 10.9493 12.8494
781 1 15.9961 -15.7617 0.27369
1572 1 -10.5343 11.5797 13.2235
1864 1 16.2225 11.0768 28.7603
1012 1 1.98529 11.101 -0.553683
365 1 18.9776 10.4774 0.203959
692 1 5.87079 -2.70216 -0.701
1527 1 6.30568 12.1827 -0.248333
162 1 5.27377 12.3918 -13.1495
455 1 -8.87096 10.704 -0.793081
1975 1 19.7892 24.9708 0.165601
1645 1 -6.86889 -0.479867 -14.2544
546 1 -6.30226 -2.89052 14.9359
618 1 7.2035 12.6782 1.2243
1824 1 21.5431 -2.60488 13.5137
1014 1 9.39753 -0.648584 1.08797
1758 1 8.15894 25.295 0.881813
1114 1 -3.50145 -1.71028 0.00477297
576 1 10.6233 -2.73545 2.5245
485 1 -3.18673 -1.50689 0.928886
743 1 -16.5593 24.0503 1.0043
716 1 -3.66558 10.1602 15.5063
441 1 -0.844405 9.93091 -12.7953
1428 1 13.2504 11.2192 0.993053
1298 1 0.399941 -13.7769 14.1029
585 1 1.41188 13.4872 28.7679
208 1 15.1273 -1.80173 -0.933691
930 1 -12.2145 25.5414 14.4666
2002 1 -12.1259 12.9354 14.235
9 1 16.9319 12.6506 -0.538331
1658 1 3.01736 0.744266 15.6285
1585 1 15.4257 13.7467 12.8996
694 1 4.48227 11.9496 1.38623
859 1 17.8043 -2.26205 13.8048
1792 1 4.08948 27.5437 13.7184
2033 1 3.0356 13.5383 0.0410591
1396 1 18.6323 13.6647 26.461
1927 1 3.76787 12.4194 14.3968
1343 1 5.74259 13.1724 2.49643
1939 1 5.15264 0.393412 14.0675
1806 1 4.3896 -14.4327 2.77809
1316 1 -5.78501 0.214953 2.74073
1431 1 7.71636 13.2275 14.1376
1478 1 7.05221 13.4113 29.5639
1355 1 -5.5633 -0.521548 28.9803
222 1 9.48414 11.9244 1.02966
932 1 -2.9427 13.185 1.53974
69 1 -1.24858 -1.06322 -13.7222
1514 1 14.5225 -1.39697 15.2309
411 1 12.8908 -1.83617 0.252348
958 1 13.2761 -0.730091 0.594603
557 1 14.9796 0.141425 -10.86
1432 1 15.5023 14.5899 -12.0432
1455 1 0.498085 13.2012 2.54235
4 1 -10.0091 13.6095 -12.358
448 1 17.6467 1.16396 -11.73
1457 1 4.60026 29.5302 15.6609
170 1 16.5853 1.30407 -10.6312
1210 1 19.525 15.1277 2.94854
987 1 4.82103 14.4585 -9.87474
1489 1 20.6983 0.985867 4.66314
739 1 6.51515 28.5535 3.75217
1987 1 -7.37425 14.2274 16.0084
352 1 21.7118 1.49231 -12.0046
440 1 20.8712 1.01884 2.3249
696 1 9.18941 0.958527 3.01973
898 1 10.2913 14.1122 14.6163
1648 1 9.72711 1.2855 13.6892
412 1 23.2356 2.3005 -13.1284
1622 1 -4.15732 13.9991 15.7315
114 1 -3.74992 14.8878 -12.0526
875 1 10.0676 0.108525 16.8421
853 1 11.2516 0.389481 2.79316
1379 1 -2.98443 0.504398 1.93569
2034 1 10.182 28.3217 2.75651
1765 1 -0.0583008 13.4388 15.1779
1605 1 13.3708 15.0645 -12.1036
1511 1 11.8125 27.9301 2.02624
1320 1 0.41463 2.03379 2.46032
2041 1 15.3389 3.49528 15.8003
1057 1 1.70773 -11.4403 15.6802
116 1 15.5311 30.4893 3.32494
1004 1 2.75934 17.074 16.4981
1573 1 4.13973 2.2497 -10.7065
358 1 4.76279 2.74877 14.4169
1492 1 31.6827 -24.139 16.2892
520 1 -8.13289 -11.4073 2.47135
578 1 5.30026 14.8447 1.73619
1176 1 19.2842 -12.0318 17.8693
1327 1 -8.55615 2.30275 3.37445
668 1 6.27188 15.9329 3.3599
1540 1 -5.59717 1.34644 16.4055
160 1 7.95813 0.765871 0.70169
1482 1 -4.79837 1.11992 0.868805
1597 1 10.1589 2.04785 2.337
413 1 24.7478 2.03452 1.7323
1083 1 24.3439 3.21603 1.75236
1848 1 10.4047 15.5657 0.904861
1335 1 10.9593 1.59844 16.4872
107 1 13.3916 3.35005 3.09897
1466 1 12.9843 2.48736 16.0204
1574 1 -0.708097 1.40949 29.9642
1858 1 12.2006 2.33059 3.06648
1555 1 15.021 -9.12829 2.19127
1209 1 0.370898 3.18061 2.13996
1805 1 28.4802 3.7529 3.3136
1429 1 13.7358 4.25527 3.66851
1141 1 15.9446 18.6352 3.75843
704 1 15.9298 2.28842 2.91624
955 1 3.13069 4.39206 -11.081
1169 1 18.767 17.4229 3.09783
1407 1 5.00845 3.17845 29.2036
315 1 17.2459 17.3725 3.55039
1032 1 -8.49221 4.35052 2.2106
111 1 6.37136 17.6699 -10.4411
1453 1 -9.94097 18.2113 1.69863
991 1 21.4026 16.1488 -10.7823
1665 1 7.39435 2.95139 1.68551
1822 1 7.33551 3.97399 15.5637
714 1 -7.78115 16.841 16.7042
1098 1 8.37194 3.77351 1.92981
503 1 -5.48263 16.9236 1.01094
2021 1 -18.3447 4.55024 15.4806
891 1 22.714 15.4576 15.77
1996 1 -4.25502 17.1629 15.9677
1398 1 10.4244 3.83981 16.4906
797 1 11.9029 4.87042 -12.031
1676 1 -2.79607 2.98311 16.3822
1807 1 -1.04566 -10.166 15.9453
1726 1 -0.404847 30.614 28.7498
1185 1 -13.4016 4.17079 1.23549
418 1 12.6987 18.3258 29.6978
849 1 14.1054 -7.55428 1.54221
1497 1 14.8839 5.89329 2.58309
1940 1 15.8473 5.27786 2.73744
1969 1 14.7521 18.6742 16.8026
100 1 2.93071 6.02042 -9.77311
2010 1 17.562 19.5447 1.8223
159 1 3.04518 19.0484 15.886
1394 1 4.03135 -7.50519 30.2185
913 1 19.1327 5.59822 16.1488
565 1 4.77572 18.925 1.59226
611 1 -6.82077 4.89875 1.4181
1534 1 -7.83368 18.77 1.60398
362 1 8.96412 -8.39205 2.57387
373 1 7.74247 5.62646 14.7703
614 1 8.99182 4.1941 16.5245
683 1 8.02344 4.70345 1.56049
1629 1 10.0049 4.1388 15.3048
1495 1 8.80886 19.409 -12.0994
417 1 -2.80404 18.0259 3.86756
1007 1 -1.39288 6.03596 -9.70369
712 1 9.70672 5.82074 3.4596
145 1 -2.09577 20.13 14.3494
956 1 -3.41644 18.8258 0.966616
1963 1 13.3171 18.7796 30.3406
1276 1 0.510459 -8.4376 -11.3927
1830 1 13.2846 -7.8142 15.9115
14 1 17.2854 -6.11507 1.60302
196 1 -11.7287 6.12336 -10.3666
525 1 2.78789 7.87807 3.17662
1828 1 3.48337 20.4174 2.07528
846 1 17.2855 -6.1906 2.70709
1233 1 18.5633 -6.71825 -10.9433
1756 1 19.0272 21.2628 2.02346
1904 1 6.39577 20.6906 14.1973
990 1 19.6266 6.70503 -11.2546
347 1 7.38348 5.3188 15.9227
609 1 6.6167 -7.85078 -12.623
264 1 8.51056 8.33197 2.01809
217 1 22.0011 21.4298 1.14477
577 1 7.78834 21.0981 1.90865
1888 1 10.0546 5.61427 2.13305
703 1 10.2376 -5.52168 2.85492
1698 1 -1.78185 7.21734 16.0381
336 1 11.8972 19.8854 16.3404
129 1 24.334 5.86194 2.82184
772 1 -1.97701 8.17741 16.6486
244 1 -15.1998 6.29704 1.60573
1732 1 -0.0962043 21.2584 2.71679
540 1 0.283125 6.4758 2.91326
1780 1 13.8015 8.67794 3.30098
1487 1 1.57376 9.22351 15.493
84 1 14.6604 -5.80354 2.31516
1124 1 4.58692 7.99214 29.882
1462 1 2.88873 8.26882 -11.3918
560 1 5.33615 22.2915 16.4349
483 1 4.07313 7.02946 3.46998
131 1 6.41676 8.55851 -11.3135
627 1 6.64639 9.13462 1.63956
1743 1 5.19999 21.2931 3.67732
1177 1 19.5963 7.75523 16.5919
50 1 8.1059 -3.52348 1.53494
1127 1 -7.22958 7.81631 1.56437
368 1 9.28813 7.75597 2.45339
1682 1 22.8264 11.6368 29.7311
1593 1 8.91786 7.92726 30.7325
1415 1 -3.50653 7.43768 1.3325
920 1 9.53419 8.86626 3.68942
945 1 24.2218 8.92598 -11.4169
690 1 12.0147 8.35331 -12.1367
1980 1 10.6509 7.27963 14.0976
1240 1 11.0806 -5.74305 15.7877
1787 1 11.8963 9.39822 2.42001
813 1 -13.3267 8.84221 16.0478
1190 1 12.6932 -5.12909 2.52707
965 1 1.13018 11.0312 2.59012
527 1 14.3414 -3.70311 2.38418
666 1 1.53089 10.4146 1.56384
1669 1 -12.5773 8.99602 3.02272
750 1 3.17323 10.2975 0.893112
1997 1 -11.2868 9.14529 16.522
863 1 4.9303 11.0628 2.08053
428 1 3.3916 23.145 2.47562
153 1 3.97547 9.98821 -12.0537
1491 1 18.175 8.2325 28.7694
1213 1 5.52011 8.74072 13.517
607 1 33.4636 9.58992 2.41465
349 1 19.2742 -4.85521 15.2735
832 1 19.9958 23.4194 0.345416
488 1 -5.70151 9.79183 2.93429
192 1 20.6325 10.6401 -13.5069
695 1 22.2677 12.2627 1.56997
1691 1 -4.932 9.4167 1.5076
77 1 9.6154 -3.2911 3.23043
1532 1 23.8966 -4.29782 16.8625
536 1 9.38117 22.4591 16.2596
1152 1 11.2532 8.94265 17.2362
366 1 -4.43323 10.2947 4.52453
1702 1 -16.1397 -3.59937 16.6815
167 1 -1.18858 10.09 3.09187
1417 1 13.3381 -16.675 16.3612
43 1 13.0433 -4.01284 15.5886
1163 1 -1.75443 10.8045 -11.2554
857 1 15.0361 -2.85535 13.8441
1332 1 14.3062 -2.38824 14.7439
1167 1 -11.5431 -2.88245 2.51833
346 1 1.91054 -14.787 -11.9995
240 1 16.0626 12.3629 17.4244
1872 1 -9.59508 12.8098 1.77949
202 1 2.31004 -3.47481 3.53073
280 1 5.06852 12.1876 2.36065
419 1 5.19536 11.3391 0.594871
699 1 5.47431 -1.97788 1.52005
924 1 7.07634 -2.08566 14.2744
1946 1 35.8735 10.625 3.14816
1064 1 7.12273 11.4001 2.88055
929 1 -4.52148 -0.83546 2.40929
1031 1 -2.31787 -2.41943 -12.1234
1772 1 -1.13544 -3.02441 1.60886
1719 1 13.9126 10.3895 -12.2897
333 1 27.0486 -1.52118 1.37897
685 1 -1.33668 11.5316 2.99909
310 1 -0.319906 12.6748 2.2734
1789 1 1.03039 12.2944 16.3903
1718 1 27.8173 -1.30678 14.2267
1970 1 -26.7512 -1.45979 31.2269
1589 1 -0.167494 0.0319781 3.41194
468 1 2.88374 13.0364 -12.6874
284 1 16.8003 -14.2988 15.7589
748 1 -10.1413 10.9939 1.84133
426 1 4.59488 26.9795 0.729169
1829 1 2.78667 -1.8604 2.08486
1112 1 -9.75586 -1.74844 2.30443
1696 1 19.014 -1.79544 -0.416341
168 1 4.58431 0.343394 1.67978
78 1 6.07928 -1.00142 -12.1408
1056 1 6.62257 -1.32674 16.2579
532 1 18.7109 0.335967 2.67529
461 1 -7.51157 13.8951 4.20844
438 1 21.46 12.011 2.15995
324 1 -7.27601 -0.398307 -10.3142
1268 1 8.06772 0.0341717 -9.47656
664 1 7.22361 27.6453 -10.0852
886 1 10.1437 11.568 -10.5152
1544 1 10.182 -1.58073 15.8218
586 1 9.1967 11.3707 -9.91197
1225 1 7.39679 12.3666 3.30704
1376 1 -2.48035 -1.32815 1.70648
1714 1 26.1622 -1.03943 16.7318
1547 1 13.488 -14.7867 16.9645
815 1 1.7899 1.31757 3.25711
396 1 12.9816 13.8905 -11.3112
1088 1 0.209594 13.1727 4.15648
1115 1 2.88622 -12.2681 17.8745
828 1 3.12188 13.8831 3.26053
1305 1 -12.6106 -0.694509 3.45379
1153 1 18.852 -12.9571 4.83111
1410 1 2.08493 0.426493 3.92828
767 1 3.67256 14.6022 3.85071
1798 1 4.37152 -14.1327 19.2141
205 1 -8.02997 13.5176 5.26208
1451 1 4.26939 0.103453 4.67968
1435 1 -5.81289 12.8269 5.05809
1082 1 7.9398 -11.58 4.85706
1357 1 -4.64037 13.926 4.54836
1480 1 -4.73699 26.3034 17.0855
574 1 9.32771 0.537001 5.62895
392 1 -3.91718 12.9056 5.07698
81 1 9.71712 0.812548 4.05268
713 1 10.8251 27.1421 4.16887
121 1 11.6867 15.2768 3.66779
718 1 -2.94694 14.4712 17.367
1507 1 -1.53344 13.3256 16.0619
2024 1 -1.44233 0.583784 16.8218
1297 1 2.24838 2.3466 4.08266
974 1 0.407083 14.7551 2.90745
376 1 15.1606 3.35384 18.0028
1884 1 15.7227 17.748 16.6314
1334 1 16.6321 2.66756 18.3415
317 1 4.05165 -11.2624 4.62064
550 1 3.14697 -11.4567 17.281
478 1 18.0547 15.373 3.96306
381 1 4.45596 3.09108 -9.90101
141 1 4.49091 14.614 5.64745
1790 1 5.56977 2.77079 4.29186
1974 1 22.05 2.80546 15.8144
174 1 7.41613 17.6121 16.7871
1560 1 -7.14516 2.32069 4.40746
341 1 -6.29608 1.73758 -9.73184
1663 1 23.2478 1.36983 -8.65477
1090 1 -4.54325 1.77604 17.8509
575 1 9.82791 1.83419 16.9913
1229 1 10.3328 1.65334 4.28323
680 1 -2.8082 2.30185 3.71185
1077 1 12.549 -12.7881 4.22564
328 1 -1.57131 2.70434 18.9361
405 1 -0.318455 15.8371 -10.4218
305 1 12.8979 2.19764 -7.86968
1596 1 13.6504 4.21253 2.37343
852 1 -24.8738 3.69922 4.22512
1753 1 2.82752 17.3996 5.39404
729 1 14.1271 5.97434 18.1163
566 1 16.6617 -9.12123 -9.1778
469 1 1.31898 19.3215 3.92844
700 1 17.8641 4.19877 2.77722
1818 1 4.50305 4.06083 3.86896
1646 1 4.78749 -8.63466 -10.3591
1550 1 20.5962 3.03147 2.64448
195 1 -7.85911 4.85854 16.9879
2018 1 6.62041 17.2784 17.7646
1685 1 6.51251 18.1964 2.35281
363 1 5.75289 3.85907 5.4433
1960 1 -4.1996 16.1302 5.26409
235 1 -4.47809 17.23 -10.0084
615 1 7.28599 2.85199 3.88268
2048 1 8.16346 18.2804 16.2678
1847 1 9.68357 2.6153 17.7758
1739 1 10.0744 -9.19707 4.85813
1164 1 9.66415 2.83136 3.00479
1279 1 -2.27927 31.404 15.9684
1162 1 11.8152 2.40959 18.0343
1522 1 12.5842 30.5105 3.65257
630 1 13.3292 -10.5956 19.414
16 1 12.8285 3.88144 18.5249
969 1 -1.05882 15.5196 4.15191
563 1 -0.97919 4.44846 3.29739
521 1 13.3612 5.17115 4.06581
979 1 13.1552 20.4345 17.6078
1608 1 -13.2917 -10.1623 18.1193
1821 1 1.46921 -7.869 32.2491
1144 1 4.64905 -7.93708 4.62216
253 1 -10.1331 4.75151 3.46514
1349 1 -8.13775 4.43116 18.087
1826 1 5.65573 20.1866 18.014
1106 1 -10.7703 6.902 3.27931
501 1 -8.67161 19.7724 -10.3892
655 1 4.11315 18.8298 -11.124
722 1 19.3049 19.2021 17.9572
1086 1 6.9835 4.96828 3.27829
912 1 6.51573 19.5496 -11.5493
297 1 6.52709 -7.72361 4.19125
584 1 8.27246 17.0169 -10.6357
879 1 8.28042 6.61955 3.35212
844 1 9.64434 -8.997 3.65577
744 1 10.397 3.24201 17.2548
1697 1 -3.1569 5.38184 4.032
677 1 12.0461 17.5514 17.9358
997 1 -2.32903 33.9802 3.47544
486 1 12.0012 19.5104 5.04369
299 1 12.4829 4.85208 -22.7665
597 1 10.8212 4.83535 2.99185
1853 1 12.9393 6.84477 29.7214
1245 1 16.4199 5.58529 18.6568
811 1 14.4119 -19.7557 3.66348
350 1 29.7111 -6.82153 2.38955
512 1 16.5441 20.9251 4.25258
1542 1 4.1551 7.58751 4.87644
1104 1 18.3293 6.66614 -9.3618
1027 1 6.11293 5.98827 3.22349
491 1 -7.59669 21.5661 -9.53144
1537 1 20.1341 -6.73987 17.1559
90 1 6.44364 -7.63255 -8.29123
1712 1 -6.80821 7.9366 3.32403
2030 1 6.81307 -6.32978 16.0391
102 1 7.49478 20.7614 -9.77458
518 1 7.34713 -7.42861 2.87001
369 1 8.25868 6.49769 16.0104
1579 1 23.1176 6.53722 2.81646
1688 1 10.9777 6.6414 18.5378
1857 1 10.4274 -6.54331 16.3049
554 1 23.3983 -7.7113 5.89754
946 1 -1.66756 7.05809 4.3595
860 1 13.1197 6.01297 3.27176
1990 1 12.454 7.28098 3.37919
876 1 11.7032 34.5537 5.38378
544 1 27.106 -17.802 3.01209
1701 1 1.66806 21.2072 4.40243
1001 1 1.24012 8.44351 4.53502
993 1 1.26895 6.94004 -10.8294
1877 1 3.27406 22.0805 17.6844
973 1 1.61775 -5.48561 17.1224
1677 1 -11.7352 20.2602 4.3166
1430 1 19.8523 8.66385 -10.2684
1145 1 18.5413 8.33624 4.42068
1914 1 17.4656 7.53958 6.10827
613 1 7.01245 -5.06337 -9.21334
300 1 -7.6031 10.1272 -10.2556
460 1 7.12536 -3.59203 15.68
248 1 21.5685 22.958 2.04947
254 1 21.1786 8.3253 -11.2116
1773 1 7.92363 -6.13196 2.97098
135 1 -18.9089 22.4718 30.4392
1982 1 22.1884 7.60823 18.1776
490 1 -3.97231 22.9935 -22.5686
682 1 -3.62545 6.40819 4.51969
1581 1 10.0943 8.49366 5.42874
1392 1 11.0671 8.13214 18.5302
1331 1 -2.61322 -6.01341 3.78847
1158 1 24.5669 7.663 5.84333
684 1 13.1 21.5992 3.82142
1690 1 0.613057 9.2584 4.24881
2042 1 15.2656 23.6091 16.5534
1926 1 -13.5812 8.33073 18.3235
1724 1 17.3223 22.2399 16.5616
1369 1 2.12522 9.04727 3.79972
1459 1 4.62305 -4.93228 30.7821
1051 1 30.6588 9.39312 3.60837
1704 1 5.31733 -4.28975 17.634
774 1 17.2323 -3.11615 17.8573
839 1 5.19841 10.001 15.9971
470 1 6.72508 -2.93936 -9.5541
1307 1 6.53824 11.0647 1.92655
402 1 20.8563 9.16431 16.8118
1023 1 20.2446 22.6617 -8.11962
198 1 -4.93943 22.949 4.4189
473 1 8.36653 -2.99862 -23.1469
384 1 -3.25837 8.86665 4.25358
760 1 8.90164 10.57 15.8969
1465 1 9.87026 -4.11345 5.73409
1959 1 -1.70354 21.9336 4.34047
843 1 38.3453 8.91957 19.4342
1639 1 25.3912 9.1531 18.578
1566 1 13.7913 -3.24774 30.9794
1630 1 25.9918 -4.56442 3.37063
837 1 -0.574936 -4.55769 4.08643
1730 1 -0.920207 -2.7623 17.4784
1129 1 15.4538 -2.95264 -9.06741
1312 1 14.8016 10.6711 17.2829
454 1 2.11274 25.0536 3.50495
1203 1 4.1446 9.76189 2.9969
855 1 1.7988 -1.8392 18.2062
1385 1 3.2587 11.7331 -10.3062
1360 1 2.86143 -3.40614 1.95567
1736 1 4.57682 22.8418 15.8836
74 1 -8.4766 11.6018 16.9521
1626 1 17.962 -16.2309 16.838
1198 1 5.07799 25.6395 4.26211
1202 1 21.4674 11.5796 18.6802
1801 1 -7.30036 11.9772 3.5069
1816 1 19.513 10.8466 2.81757
1664 1 20.6717 24.0398 -10.6515
669 1 -6.11131 -16.0266 17.5855
451 1 -5.67673 -1.10685 4.04017
943 1 -5.40509 -1.9038 -10.653
637 1 -5.5419 -0.716117 2.60606
1306 1 -1.40121 11.9961 15.7417
1570 1 -3.55812 10.9941 4.31227
1584 1 12.3238 10.2885 5.11091
2013 1 11.4179 11.0446 -10.2929
1694 1 11.2002 -1.80558 16.5264
1242 1 13.6174 -2.13167 16.8276
689 1 -1.02263 11.205 4.99873
423 1 12.4275 13.4854 3.78512
1230 1 -0.281473 11.7068 18.0278
999 1 -1.01103 12.4548 4.12206
436 1 -11.4729 13.7938 2.36071
569 1 16.9605 -1.28657 4.29613
447 1 29.9597 -0.00426483 4.91596
27 1 3.15363 -3.15446 -10.594
374 1 16.9897 13.4694 -9.47203
1977 1 3.97815 13.9248 29.8909
183 1 3.32562 -0.719338 3.17948
371 1 -9.50806 13.6189 3.52272
221 1 17.9231 12.2226 3.53636
1366 1 19.2689 12.5081 3.30539
1624 1 4.32049 -0.962591 18.1782
947 1 18.9202 13.412 3.60355
415 1 32.2828 11.9952 5.34523
318 1 22.5263 -1.21015 -8.21773
1467 1 20.5445 -0.732945 17.8776
1813 1 -5.58483 0.841389 3.62533
1972 1 24.1425 -3.68342 17.6317
751 1 10.0667 12.6645 2.998
868 1 -3.63136 -1.54488 17.721
301 1 8.89496 13.7442 16.9933
1861 1 11.1752 12.9809 16.6305
313 1 25.3131 14.1359 4.02135
1825 1 -15.7209 -0.99049 3.95816
1249 1 11.0735 13.8431 5.07904
1481 1 -1.67294 12.2707 4.96399
130 1 1.26766 2.3638 -9.06821
1559 1 0.832048 0.176528 18.5095
1486 1 15.3511 13.2119 18.0186
1362 1 13.1984 1.26791 5.02652
1080 1 2.20049 -0.541466 16.7855
1905 1 28.8908 13.7129 19.3064
1261 1 3.78829 14.8023 4.82184
1139 1 4.06397 0.379572 6.357
1496 1 17.086 1.88666 19.0321
595 1 30.8291 1.21932 20.0829
1521 1 7.35115 -0.0478891 19.6828
2009 1 -8.7866 14.5892 6.94855
1125 1 8.54233 2.76865 19.3957
1869 1 7.47934 28.2188 19.2878
641 1 8.26816 0.895863 4.68798
890 1 -3.60873 0.276891 4.93312
1151 1 24.0536 -0.302148 -7.85032
1612 1 -2.86669 0.650773 19.6727
1224 1 -2.80964 14.9445 5.10836
514 1 -2.97539 -1.13318 -8.69482
1770 1 12.2555 -0.232623 18.5423
1783 1 12.5452 0.12159 19.6693
1 1 13.0148 -13.4128 -6.66811
1606 1 -1.99887 14.0999 20.2903
1709 1 14.4229 0.659344 -9.8845
1113 1 2.11624 29.1779 18.7631
573 1 28.1261 -11.8254 3.51121
950 1 3.25566 16.8866 -6.92375
1193 1 15.3812 14.9812 17.9913
1733 1 1.36071 31.0455 5.26116
1244 1 1.14667 16.7415 6.56854
1154 1 4.84089 15.4222 18.5529
516 1 17.5327 -10.7568 -7.83899
762 1 18.1037 30.4564 -6.85049
1678 1 -7.81567 2.40116 5.72877
1823 1 6.34623 28.9753 6.14579
1503 1 33.2466 16.9652 19.933
977 1 18.4691 17.3006 4.64871
1283 1 18.0466 1.8416 6.75088
1220 1 19.7373 28.9771 18.8177
612 1 -6.6994 2.21303 5.44758
1118 1 9.28274 2.15572 6.20028
593 1 8.71781 0.559761 6.76009
236 1 7.69195 3.07087 5.03039
18 1 -3.96268 17.1455 -8.69399
433 1 -4.98809 17.335 5.0751
466 1 11.354 2.72871 5.95046
1840 1 -0.600024 2.94367 4.64646
823 1 -1.73785 15.2727 4.91174
2015 1 25.5085 14.3663 5.59868
942 1 11.3352 1.46187 6.33015
736 1 -0.218676 14.9997 -9.73079
124 1 13.175 1.74464 -6.92327
693 1 0.842328 -10.8866 -10.7183
1594 1 14.3023 1.31655 4.63363
1609 1 0.184032 2.31337 17.9487
256 1 15.01 32.0062 -8.23872
1994 1 2.0012 2.83347 5.17403
1267 1 3.62479 17.4181 -9.14819
383 1 16.542 2.56573 5.74485
1140 1 3.01924 4.78108 5.63995
1285 1 14.9315 4.15255 6.49515
676 1 1.68045 18.1919 4.49929
94 1 17.5165 17.7747 6.02817
790 1 3.59493 4.81894 -6.47111
1915 1 18.6205 2.71237 5.16559
804 1 4.85108 3.61679 19.6658
1799 1 4.45934 -9.47688 6.92064
961 1 -5.88145 31.3961 5.17627
364 1 20.013 3.17761 5.03617
1918 1 5.6234 5.197 5.31396
921 1 10.9478 3.32593 4.40581
626 1 -2.27534 4.01874 -7.54069
1854 1 36.1621 -25.0337 -10.6522
1619 1 -3.23815 5.1045 5.54517
379 1 -2.23761 17.5427 5.13832
1625 1 -1.57555 2.23409 6.55538
53 1 26.1244 3.61439 19.6103
1716 1 13.4793 -9.02985 5.02811
156 1 26.1727 16.7908 6.97598
487 1 0.772539 4.69827 -9.44543
173 1 -0.531104 6.05618 -7.79034
1964 1 0.461208 4.76286 20.2204
459 1 15.2145 5.56669 19.7836
1989 1 -23.5319 5.1907 6.13376
2028 1 3.88085 18.63 4.69861
1814 1 4.71008 18.0835 18.9904
128 1 19.196 4.22116 6.76304
1181 1 7.10407 5.25199 18.9365
1450 1 7.2742 6.30279 4.73263
1412 1 6.51952 18.513 17.8098
403 1 6.53857 18.6559 7.34819
25 1 -5.50972 -10.0195 -7.52992
539 1 9.29421 6.91697 -9.63986
155 1 21.3228 4.9728 -9.35514
477 1 34.9876 19.5705 17.5338
749 1 9.56307 5.3878 4.47877
1075 1 8.66712 19.2811 3.91656
1871 1 -1.6242 -9.10443 19.2013
1105 1 -1.75588 -8.38803 -10.4223
763 1 25.0024 -7.93408 -6.77925
1170 1 11.6453 3.62766 3.32951
270 1 13.057 -7.86642 -8.86306
1444 1 -1.40226 19.3348 19.8706
658 1 0.651283 7.42517 -8.38289
1938 1 3.91981 5.61744 17.507
884 1 15.2569 -6.95442 5.60512
1785 1 13.6005 6.71156 18.7453
1039 1 3.59149 6.50231 18.2773
1475 1 -11.1212 6.55763 18.9321
1205 1 5.20108 21.0592 18.4995
1879 1 19.1298 6.20863 19.1454
1356 1 19.6072 -6.53536 5.43833
306 1 4.88061 -8.61502 6.45896
533 1 6.27617 6.28392 -7.15232
101 1 8.00095 7.27669 -8.13706
1679 1 21.0627 8.11096 19.7585
1520 1 -4.79912 6.49778 19.758
1344 1 21.991 -7.16254 4.64544
425 1 8.95142 6.67457 -5.30962
1611 1 11.0049 -7.58814 19.513
2031 1 9.67947 7.01436 -7.36077
1920 1 10.0228 20.7897 18.9735
831 1 10.144 -7.5889 6.81727
854 1 -1.15508 -6.91716 5.26265
489 1 -12.7595 6.50829 3.66263
838 1 -1.92362 -6.97377 -7.2848
48 1 3.31484 10.4991 5.9844
389 1 15.4429 -5.81028 5.4583
742 1 4.68258 8.01504 -7.02314
259 1 -9.85068 35.9396 -8.81722
524 1 -8.03923 -4.8166 4.84309
1525 1 6.5997 7.93215 5.222
1065 1 -10.5337 -4.2206 4.6606
1322 1 -7.64773 8.14614 6.2048
1078 1 20.2111 20.7799 4.42556
1223 1 6.95342 -6.72384 5.48763
1707 1 4.77599 8.22809 5.47683
312 1 7.84606 8.47706 18.6784
1402 1 22.1489 -3.29473 19.0278
1208 1 21.449 8.14957 17.4137
1744 1 -4.7475 9.65559 17.0927
1093 1 9.63182 -5.76928 17.8463
1408 1 9.08766 7.67251 19.3785
2035 1 -4.64176 8.4319 4.93917
370 1 10.217 21.794 6.59702
1978 1 10.4339 -6.47036 20.8154
759 1 -2.28272 7.73587 20.4963
164 1 -0.51411 -5.05007 5.96458
243 1 -1.07519 -5.82251 -8.40939
144 1 -12.7466 8.49607 5.54866
1436 1 28.6947 9.40865 32.4257
1228 1 3.06351 8.72887 5.73611
1531 1 2.1488 -3.94718 4.58163
1318 1 2.05519 -18.4621 -7.93988
1293 1 17.2842 23.3192 5.69556
1403 1 2.69292 11.445 4.34138
1512 1 5.31941 -3.5741 18.3249
1284 1 -7.30465 -4.03502 4.57477
624 1 -6.06088 10.6565 -7.59135
68 1 -5.98426 9.49847 4.80911
1656 1 6.79351 -1.93761 4.51577
1282 1 7.58615 -17.2727 -9.86259
949 1 -5.1105 9.32301 5.6117
37 1 -3.9266 10.5882 -8.37091
862 1 9.44088 -4.97093 6.25693
1866 1 10.355 -17.0918 20.1264
1411 1 -3.42508 -4.51146 6.65786
1740 1 -2.37834 10.0816 19.4932
1548 1 -2.95554 -17.7478 4.85191
115 1 12.9411 10.0812 18.0567
1655 1 -0.840497 8.87818 18.7153
1771 1 14.915 10.4896 -8.15996
826 1 13.8123 -4.2121 5.44852
1634 1 2.12994 11.6674 19.3438
1302 1 16.0236 12.6494 4.97987
231 1 4.41205 23.7486 17.8022
1846 1 3.49534 12.9124 5.22427
661 1 2.81644 24.2803 5.01958
126 1 18.1194 -2.61602 4.36774
3 1 4.9997 -3.32317 3.31571
193 1 -8.66344 10.9393 -8.27974
26 1 19.3677 -4.20535 -7.94978
1713 1 19.576 -1.97999 -21.3215
900 1 8.24137 -2.16392 19.5579
1728 1 6.92245 11.4032 19.5507
1301 1 6.5292 -2.30266 6.77519
1365 1 8.83647 12.8531 4.49764
1290 1 -6.19091 -3.06245 4.95993
2047 1 9.24605 25.1658 19.296
1784 1 10.8396 24.4954 5.34177
1142 1 -1.86863 -3.86276 4.05059
399 1 -13.87 10.7329 -7.00812
1687 1 -3.68942 11.2522 33.6612
1945 1 14.2962 -3.47874 4.74744
1561 1 -1.77458 11.4483 19.3896
711 1 -0.150167 9.44504 6.4909
348 1 0.116259 11.5258 5.32772
1197 1 14.4509 24.9481 4.57723
1348 1 1.64319 -1.04371 5.79466
543 1 2.75475 -14.9011 19.5519
334 1 1.06425 11.8413 5.53185
1654 1 2.60679 0.448834 -7.66636
2008 1 4.43773 -0.62042 6.59179
1911 1 30.2374 0.951057 18.8991
82 1 3.54481 0.263616 5.39626
213 1 6.06004 10.6598 -8.31896
724 1 3.88398 11.7928 18.5252
1809 1 6.71981 -13.806 5.21
1359 1 -8.08442 11.0768 17.8455
227 1 -6.94586 12.4999 18.9055
659 1 -8.13683 26.58 4.47071
869 1 -5.386 -14.501 19.8436
224 1 10.1836 11.6995 5.28171
1727 1 8.80313 -1.60496 6.54534
216 1 9.26753 13.2267 5.97488
1601 1 -4.54866 -1.8543 4.70937
642 1 9.99032 -0.948024 -7.09506
880 1 9.75342 13.1466 -9.64612
822 1 -16.1936 10.836 4.30541
41 1 -2.65037 -15.4427 6.02078
1103 1 25.3562 -0.495293 5.89146
761 1 13.3424 0.311327 4.46646
1122 1 11.9342 -2.11002 17.8028
493 1 14.2635 12.8312 5.08237
1796 1 -14.0474 12.408 4.98933
740 1 -0.0250633 13.3999 19.4323
1463 1 14.8991 14.7209 5.52837
1461 1 0.73895 0.135259 19.986
453 1 -11.4165 15.3337 6.06269
919 1 -11.4923 -14.0409 6.37281
456 1 3.1722 2.00981 6.90568
1161 1 -11.388 1.31716 20.8593
296 1 5.07622 2.56384 -7.39979
1171 1 19.0443 1.48813 5.88981
1638 1 6.07921 14.4013 19.3328
175 1 5.53672 1.77051 6.92221
79 1 8.27648 1.55964 5.76907
1234 1 -7.05166 14.3581 6.49876
657 1 -3.98902 15.6058 7.13312
895 1 23.4017 0.0837 -6.76957
38 1 7.62305 1.27778 -7.08586
1206 1 9.51433 14.6991 21.079
1557 1 -3.93751 -12.5098 6.28308
1720 1 12.4399 14.8243 6.2089
184 1 -1.35049 14.172 7.96966
1046 1 0.281178 1.93321 5.5861
1008 1 13.9789 16.1607 6.76512
1054 1 14.3014 -10.7604 5.76074
1215 1 15.0058 15.8281 -8.05311
964 1 2.56838 16.3139 7.59897
207 1 17.6541 -11.8358 7.74509
1237 1 16.5459 31.4683 9.06517
2017 1 -11.5242 17.0229 19.8541
992 1 19.0777 2.92928 20.976
1711 1 20.2215 16.2056 7.7288
1794 1 5.3841 0.311696 7.6597
394 1 6.82226 2.83342 6.64498
1286 1 8.44287 -10.3105 21.3826
1089 1 7.66917 2.29318 20.0156
730 1 20.4371 29.005 -6.38873
1567 1 34.0614 4.24178 -8.68348
1416 1 10.4795 3.1865 6.32136
1760 1 9.2762 2.98264 7.02015
1958 1 -3.13279 16.2033 7.26113