ITEM: TIMESTEP
185000
ITEM: NUMBER OF ATOMS
2048
ITEM: BOX BOUNDS pp pp pp
0.0000000000000000e+00 1.3679807573413575e+01
0.0000000000000000e+00 1.3679807573413575e+01
0.0000000000000000e+00 1.3679807573413575e+01
ITEM: ATOMS id type xu yu zu
1256 1 -11.3798 -0.25914 2.34781
1753 1 1.28384 13.5054 0.282541
1422 1 1.52281 11.2018 15.4639
741 1 16.2259 13.439 13.6926
1421 1 1.50285 12.9351 3.35472
477 1 30.7476 27.6813 13.9637
1189 1 -10.5745 -12.3574 14.2083
819 1 -10.7172 0.527339 15.0666
950 1 2.21387 29.2845 -13.9426
1500 1 3.3023 0.844716 26.7019
139 1 4.91097 14.5398 -12.2839
1058 1 -8.37436 14.973 13.2057
1945 1 19.2804 0.0715881 2.10653
609 1 6.0668 1.84355 -14.7099
1263 1 4.24832 15.0168 14.3355
663 1 20.282 1.33111 14.8012
955 1 -8.3993 1.74807 -12.6096
1979 1 7.02172 0.555781 13.9202
441 1 -4.22337 13.3609 -14.1627
1056 1 7.95472 2.38959 14.4905
4 1 -18.7282 13.7068 -11.8058
878 1 9.07696 13.8832 14.5355
1809 1 9.94553 -14.5878 0.305043
1622 1 -1.95561 15.1878 15.8681
898 1 11.0648 15.0887 13.8626
1271 1 10.4856 13.733 14.5671
1502 1 13.0671 28.5311 13.9581
484 1 -0.312316 0.801982 -14.4027
778 1 -0.77487 -13.8689 13.6939
1550 1 26.6042 0.338216 1.02438
974 1 0.397918 14.4629 0.555441
732 1 15.5625 13.8874 14.8147
925 1 13.7166 -11.1087 -14.3402
195 1 0.571741 1.83831 14.5218
327 1 1.42258 1.35184 0.0580692
1274 1 1.46699 16.0519 0.401659
1592 1 -9.78203 15.8534 13.8035
593 1 4.93524 2.30147 0.174442
1303 1 5.54919 16.6643 -12.8432
735 1 -8.56645 1.77941 12.2896
467 1 7.77611 2.30971 -14.1955
235 1 -5.97046 17.2866 -12.7876
1022 1 20.5268 -10.6481 0.672501
626 1 8.65152 1.92375 -13.6152
133 1 -5.89677 16.841 -1.09445
67 1 8.02787 14.8593 14.2236
152 1 10.4577 16.3358 0.856805
1459 1 -2.76051 3.04794 29.5361
1772 1 -1.76218 1.79824 -0.0465424
446 1 11.4997 3.4119 -12.4109
1634 1 -1.65056 14.3459 27.797
1443 1 11.4608 29.6516 14.6886
634 1 12.4946 1.61016 1.13405
1915 1 27.6529 1.61226 -0.194705
1620 1 -0.114377 2.49085 1.42446
1419 1 13.4471 14.809 14.9866
482 1 1.44585 17.959 0.610586
1146 1 1.93907 18.5299 15.1319
1583 1 -0.112233 31.0599 26.6439
562 1 17.0606 -9.63242 1.27818
1894 1 -12.3725 3.43569 14.8492
612 1 -11.8961 5.59344 0.807995
309 1 -10.4122 -10.8008 14.4673
1394 1 3.5571 -11.6202 28.5356
1701 1 3.90482 18.5533 1.77488
1810 1 5.13531 5.09983 14.488
1612 1 4.42005 2.65658 14.6589
1141 1 18.1254 17.7257 0.87768
704 1 19.6853 3.56168 1.57973
1712 1 -7.3074 4.59781 -0.551862
583 1 5.51374 4.1718 0.879129
928 1 -5.33029 2.97186 13.7699
582 1 -18.6312 4.39413 -12.6728
1429 1 7.45835 4.66809 0.793602
190 1 -3.35891 19.3085 13.6411
800 1 -4.25401 3.67579 0.109047
36 1 10.4186 3.74411 14.2423
396 1 11.1989 19.9418 -14.1579
1596 1 12.7586 4.56161 0.429324
1497 1 14.8976 3.4576 2.15633
971 1 0.208261 -8.31459 -0.14574
248 1 14.5909 18.0004 1.53206
1293 1 13.0659 32.9204 0.610612
826 1 1.50481 4.50524 2.42037
1207 1 2.5499 -7.44138 28.0993
1352 1 -8.77093 19.0071 2.38255
833 1 2.88364 -9.01551 -11.4904
518 1 3.68305 -8.61151 0.795455
207 1 17.2222 -7.95122 16.0199
1185 1 -8.4853 4.39508 1.84126
411 1 19.1163 -6.95284 0.69829
811 1 19.1807 -21.2821 1.50561
362 1 6.26992 -7.99276 2.09844
1747 1 6.5064 18.0367 0.434641
1691 1 -5.85669 3.92339 2.23718
423 1 8.3728 19.0059 0.637547
727 1 7.03814 -7.97304 0.45236
693 1 -3.33289 -10.2474 -14.2003
79 1 9.4276 5.61325 14.2844
50 1 9.73616 -9.13278 0.45178
10 1 11.1874 4.43145 -12.7135
223 1 -2.28676 18.8682 -13.5711
92 1 12.0276 18.5794 -11.0737
1198 1 -0.955179 19.2374 -0.435491
378 1 14.081 -9.777 0.335702
506 1 13.8675 19.6552 1.51075
513 1 15.5694 -21.0124 1.43602
1786 1 16.6791 20.4375 13.4555
1882 1 28.0234 6.14864 14.3005
1949 1 16.7886 6.48482 1.70769
221 1 16.2072 19.3026 2.22411
1790 1 4.31383 5.90249 1.32892
1609 1 2.93057 8.25739 13.6174
839 1 4.11032 6.24511 26.7606
1972 1 30.965 -4.46127 14.402
1472 1 3.53603 7.76304 14.3502
377 1 33.8967 6.52843 1.19736
1093 1 16.8759 -4.91375 15.5077
1190 1 19.922 -7.01878 0.137459
1388 1 -20.1431 7.04627 14.2215
490 1 -7.63787 21.357 -27.4379
144 1 -20.2016 7.33956 1.70822
1697 1 -5.47183 8.05114 0.673626
1918 1 7.00602 4.77684 1.68012
617 1 7.84732 5.82453 -12.0804
1180 1 20.8747 8.08601 0.17837
402 1 24.769 5.5608 14.8068
1863 1 23.9712 6.5949 28.0755
366 1 -3.38537 7.4883 1.32689
1089 1 10.4864 7.73893 27.2587
908 1 12.8209 6.55394 1.08913
1977 1 12.1087 5.76438 27.9793
672 1 13.4162 20.5081 29.2553
1162 1 14.9178 7.27344 14.6204
1315 1 -12.2824 8.2813 0.459495
1085 1 1.19655 -6.91856 13.6122
563 1 2.29105 -6.29152 0.685456
119 1 2.36491 22.6419 14.8185
1952 1 15.1759 9.74425 27.5816
58 1 16.731 -4.25457 -0.102529
743 1 -22.8193 22.1455 -0.107849
1646 1 4.74034 -4.28161 0.53162
1544 1 20.7205 8.47962 15.1722
208 1 5.47182 -6.07133 1.02396
924 1 7.91769 -4.64541 15.1997
1420 1 21.4041 -18.2002 14.0771
1088 1 -6.71976 20.8096 -0.637646
1047 1 22.9789 -6.15139 13.5297
22 1 -7.18608 -19.6108 14.5548
1707 1 7.36379 8.23389 -0.90799
1922 1 -3.43219 9.07579 13.4507
1525 1 9.68545 8.10986 15.6047
1411 1 -3.75348 -5.38069 14.0784
287 1 25.0019 7.94768 0.973057
326 1 -15.2575 8.62917 0.757254
787 1 0.198882 -6.70724 0.960732
783 1 -2.27568 -20.3458 -13.533
1325 1 13.1094 8.82493 1.73811
2047 1 14.3331 23.2925 28.2711
938 1 13.4343 10.3725 14.9251
1289 1 0.249923 -5.36163 14.9465
714 1 -10.1137 10.7099 15.2552
849 1 15.4323 -17.1859 1.14577
1009 1 16.2106 10.7966 13.0152
1680 1 -9.91595 11.2471 14.3694
569 1 16.0822 10.3905 0.306722
457 1 -8.85474 24.8271 1.43678
1744 1 -10.6305 9.97614 14.5892
1547 1 17.9481 -19.4998 12.596
403 1 5.34883 22.1535 14.0778
94 1 17.8227 22.7309 1.99362
1534 1 -8.26961 10.2559 1.53389
510 1 5.94609 9.70282 0.736437
1878 1 20.728 -3.91984 28.4596
1742 1 7.14796 11.5925 14.5754
142 1 8.28812 8.53337 13.3501
670 1 -4.82534 8.89485 -13.0386
1124 1 -2.21432 9.21039 28.8221
872 1 -1.9261 -17.0548 1.40292
536 1 9.55525 23.212 14.1191
771 1 12.2786 -3.72221 13.1743
1117 1 10.9953 8.77244 14.0005
1618 1 -0.744048 9.85424 29.5115
960 1 12.6136 37.2143 28.4641
375 1 14.4674 -1.91861 11.7156
1414 1 0.79145 10.6787 0.870226
1738 1 0.39216 -2.03903 15.5118
420 1 0.473667 23.8766 -13.7441
1350 1 -11.4448 12.3353 14.4559
1574 1 4.21675 -1.03174 28.276
525 1 4.47349 11.0736 -0.187479
941 1 3.14295 -1.58715 14.8761
881 1 6.05598 -0.587361 1.26713
1815 1 20.1359 -2.59008 15.1807
980 1 5.85465 11.1532 -13.1142
1901 1 6.62273 11.5802 29.7987
230 1 21.221 12.6752 13.9298
1006 1 -20.3557 27.2041 28.459
679 1 8.94572 24.5719 0.982709
1299 1 -4.92307 -0.858809 14.287
1355 1 -5.77246 -2.66286 27.7593
1152 1 11.3772 11.4369 14.0186
1664 1 23.4414 23.9137 1.13401
323 1 -2.92254 10.7922 14.8993
808 1 -4.70808 10.6813 13.5432
419 1 12.213 10.5172 2.40503
185 1 26.9755 -2.42409 14.3801
485 1 -1.62688 -1.50183 14.1061
1164 1 12.5375 13.0174 14.9981
1415 1 1.49384 12.1538 0.159051
1889 1 15.9767 12.4119 15.4882
999 1 -10.6469 12.7581 2.96632
1777 1 17.6575 25.6284 13.7145
1814 1 3.70186 13.2753 15.4702
1332 1 17.9502 0.190109 14.4655
1302 1 20.328 13.533 2.39769
138 1 5.09794 -0.311936 -12.8049
153 1 5.90002 14.1349 -12.42
1024 1 20.4992 14.4265 1.96268
338 1 8.50016 12.4821 15.5592
1676 1 -5.64025 13.7534 13.9497
1897 1 7.7044 -15.4746 -11.8431
496 1 10.6705 12.0138 16.0278
1860 1 10.963 12.4329 14.2136
1944 1 11.5805 14.4397 -1.43356
873 1 10.2204 26.806 -11.0136
307 1 -2.32848 0.573577 13.3209
660 1 10.2102 -1.87384 0.990076
1133 1 -15.1892 -16.7279 14.2051
471 1 -14.2451 -3.445 0.239123
1392 1 15.7048 11.3501 14.3038
1446 1 -13.0448 -12.2467 3.85983
390 1 2.41213 1.38418 1.53544
254 1 17.1351 14.6893 -10.1653
505 1 30.2483 -10.8253 29.0839
412 1 31.7778 0.559774 -11.393
1971 1 5.34701 14.4093 -10.7164
1835 1 -9.82483 1.11466 1.64337
920 1 4.96528 13.7948 5.3401
1171 1 19.2811 2.39173 2.02806
1372 1 -10.1957 15.2229 16.2123
280 1 7.78755 13.7523 3.64859
1558 1 21.545 0.35529 15.0366
1770 1 7.60225 1.3819 1.40573
238 1 6.27781 2.32883 14.8194
2018 1 7.59844 15.7642 15.9911
1277 1 8.77264 1.26477 15.7925
383 1 9.63308 13.8328 2.20527
578 1 -3.60324 14.7579 1.41108
1184 1 11.558 0.255309 -10.9269
1584 1 13.3896 13.4982 1.88679
683 1 14.1112 0.660183 2.09694
1476 1 -2.29217 12.8029 2.24522
1371 1 1.42495 -14.4683 -12.5381
1452 1 14.4981 13.3943 2.27504
747 1 1.01451 2.57656 1.54023
761 1 15.6882 2.27678 1.70602
1948 1 28.3659 14.9696 28.9265
1209 1 2.40534 2.07235 0.762696
2023 1 -11.293 3.73032 -12.1411
427 1 -8.92339 -12.0249 15.8748
1201 1 16.5648 15.5559 -10.074
1012 1 4.27075 1.43869 -0.52101
1430 1 18.6027 3.28798 -11.9142
1051 1 32.224 2.66879 2.6183
1616 1 5.66342 1.83137 2.91692
242 1 6.88929 1.94974 -10.6161
791 1 7.43434 16.57 29.0602
1105 1 -4.15417 -11.6121 -12.1278
431 1 -5.03375 -11.5233 2.86401
1632 1 22.1413 -11.7205 1.5051
486 1 9.84345 15.2866 0.413789
6 1 -2.36699 1.10386 14.8254
1804 1 10.5347 1.98561 15.3386
1955 1 -4.1714 2.99689 17.046
722 1 26.5403 15.5099 15.8688
1262 1 -1.11702 1.59738 16.8251
1675 1 11.9497 14.3133 1.6799
159 1 -1.91686 16.1574 16.2592
2008 1 13.1966 -1.42328 0.399743
356 1 14.0958 17.84 16.0634
1417 1 15.5155 -10.1884 17.094
542 1 -11.2746 4.34878 3.03131
1041 1 -11.2811 -38.4195 2.71673
1873 1 4.05884 3.13516 17.1676
498 1 3.95707 16.6126 -11.6364
1000 1 6.41538 17.5914 17.2067
1822 1 -8.48407 3.73572 16.395
432 1 17.9046 18.0314 3.06316
1567 1 33.4493 2.66305 -10.4624
1958 1 -6.15035 18.7603 2.59026
509 1 22.1903 16.6913 -11.2052
655 1 9.498 18.2812 -11.135
1670 1 -4.55222 16.688 14.584
121 1 10.7789 17.3411 4.00009
871 1 -1.40686 16.4514 1.5458
1253 1 26.0706 18.4923 1.48398
143 1 -0.155785 -22.9794 -12.5869
1823 1 13.8517 30.755 1.45618
827 1 0.204958 1.40101 16.5746
1628 1 0.527668 4.79886 3.15511
1043 1 0.110785 -7.71236 4.33605
284 1 17.582 -21.8884 17.9149
1987 1 -10.8748 6.38954 16.5445
1969 1 14.9133 19.6828 17.3947
1150 1 1.53306 18.2485 -10.1068
1871 1 4.11589 -7.09782 15.8315
1724 1 17.9465 17.6665 15.8075
1101 1 18.3382 5.17691 17.1518
1941 1 3.01456 19.9758 3.92694
1730 1 -9.03971 7.04602 14.9762
439 1 -7.13625 6.85186 2.25452
1869 1 5.16657 19.9553 16.3329
988 1 -7.25053 4.73308 2.5394
472 1 8.51477 4.57417 0.0297269
1659 1 7.99223 4.70757 1.75728
866 1 -3.92475 2.48844 2.43709
1542 1 -4.66441 3.85647 1.9265
1517 1 23.8646 4.55534 15.0986
260 1 -2.63083 -8.47449 2.15376
1621 1 -4.0654 -7.97992 29.7549
114 1 -4.64858 18.8025 -11.8947
1235 1 9.87335 3.21781 1.63456
1249 1 13.165 4.90534 16.3986
815 1 -1.38076 5.80434 1.62585
425 1 14.2689 5.15112 -12.9286
1721 1 26.9693 5.83774 17.074
645 1 15.348 -21.2886 -11.2045
1065 1 0.967568 6.72055 1.85332
1448 1 14.8912 -8.25975 1.74206
212 1 3.03533 -6.19702 -12.0972
561 1 2.14155 8.94911 2.14295
1851 1 3.9839 -7.40644 3.4935
526 1 3.89769 7.95386 15.8064
1805 1 32.7846 7.11509 2.05165
1195 1 19.743 8.0929 29.3195
947 1 19.5786 7.53742 16.4995
434 1 7.79524 7.77834 16.7008
976 1 -6.73861 8.4797 -11.0763
96 1 20.0214 -7.18031 16.7866
205 1 -5.10628 5.7483 2.6077
1830 1 10.4987 -7.21732 15.5316
1686 1 22.5579 6.18923 1.7402
171 1 -3.48731 21.8567 16.6155
222 1 -2.57174 8.22624 2.17454
720 1 -2.01852 6.6381 14.933
550 1 -3.23769 -6.44079 16.526
1286 1 12.0519 -7.88402 16.875
1881 1 13.5634 20.6756 17.8789
1365 1 12.4554 6.65871 2.18288
1586 1 -14.187 5.85792 16.0122
1366 1 13.533 7.41957 3.04936
914 1 0.75384 -17.6772 -10.8776
1669 1 -12.3909 8.83064 1.36449
168 1 13.2077 -5.77243 4.0533
151 1 16.3986 9.83069 -11.7894
1053 1 28.1172 -5.34268 2.16558
56 1 2.89336 21.5764 -11.2013
43 1 17.9446 -2.781 2.26266
1098 1 15.855 9.7649 2.87813
1605 1 18.0095 22.1821 -12.6406
1725 1 15.7533 -5.61927 1.62707
322 1 3.22739 -4.50184 2.79709
313 1 33.7079 22.4266 0.72475
1492 1 33.0805 -32.1616 16.3149
1872 1 -8.76744 7.99184 1.69737
328 1 8.53507 -4.03576 16.2704
1102 1 6.63583 7.84839 17.275
1839 1 7.49363 -17.5226 15.8222
943 1 -5.79461 -5.60416 -11.5534
731 1 9.63864 -4.48902 1.62244
1797 1 9.21067 -6.7873 0.969875
7 1 -4.28506 22.9402 3.12162
314 1 8.72665 7.83851 -25.8157
636 1 -3.25828 9.13207 16.103
1044 1 -3.46909 8.33658 17.7026
2033 1 10.5161 22.3042 1.35032
1363 1 -15.6954 -4.05173 4.08439
607 1 26.9261 7.86772 2.16726
942 1 12.8077 -5.99878 1.15637
1230 1 -1.54863 8.60208 15.5569
279 1 26.3591 -5.63231 16.7118
699 1 0.659031 -3.03132 3.60992
1381 1 -11.2121 -2.88272 15.1085
336 1 14.6912 23.6818 15.5045
1305 1 -13.4068 -3.14042 2.20253
917 1 16.6578 -2.05819 0.156636
1465 1 3.75027 -3.62152 16.1749
1785 1 4.44121 9.96409 15.176
1858 1 5.01525 9.16339 1.56388
1081 1 17.833 25.5869 -11.9534
750 1 5.40241 11.0323 2.33078
564 1 -6.28377 10.7896 1.4687
846 1 20.1083 -3.54888 2.42088
112 1 -5.36175 23.7679 14.3509
876 1 10.1575 38.5196 1.97805
374 1 8.97075 8.68552 2.20658
1959 1 -4.81374 23.8499 1.66341
1485 1 -3.13932 9.61624 14.6829
88 1 10.9694 8.93457 3.46245
1615 1 -2.76284 -3.60928 15.7571
1931 1 -16.737 10.8598 16.5555
1847 1 11.3566 11.2472 15.8971
1821 1 -1.29522 -3.63815 30.7701
703 1 11.9854 -4.10783 2.25751
1506 1 0.724507 11.3703 30.0704
1188 1 -13.9177 -4.05416 16.8968
54 1 13.9044 9.35028 -11.7687
599 1 12.7105 22.7444 2.76699
1273 1 1.27828 -3.05924 2.74807
1369 1 3.00441 11.5288 3.38348
1242 1 18.5306 -0.85688 15.3652
1275 1 2.24212 11.8655 16.4979
973 1 4.15637 -0.555578 16.3097
1328 1 5.533 12.0599 1.76221
1138 1 4.75574 -1.7594 -11.1283
1208 1 21.2457 12.1892 16.6288
25 1 -6.73774 -14.6756 -11.7367
1703 1 -5.01281 -1.7312 2.95497
1603 1 -5.15164 25.8322 31.6908
1250 1 9.16104 -2.40443 29.4296
465 1 9.10395 24.2907 2.83124
162 1 -4.54114 11.339 -10.0684
1224 1 -3.52532 10.677 4.84566
1103 1 23.2577 -1.2912 2.23306
127 1 11.5259 10.8027 3.3381
2014 1 12.2287 25.1565 14.8918
1539 1 11.1693 -1.80046 3.24461
1543 1 -14.8772 -2.24031 3.40329
661 1 -0.627349 25.1881 4.37146
73 1 13.0454 24.7852 -11.794
1156 1 -13.2179 26.3988 -12.0995
855 1 0.541114 -1.18328 16.7017
1519 1 17.0107 14.0418 30.0862
889 1 -8.37005 13.3707 16.8914
1736 1 5.91972 26.4077 16.1709
1076 1 -9.72015 -1.48539 3.29407
792 1 20.3702 -16.1247 17.338
530 1 19.4954 1.21049 15.8119
1334 1 6.52848 1.90942 15.7347
558 1 8.19673 10.6782 15.9892
1998 1 7.86372 -0.538898 16.0667
1080 1 -4.70559 1.15888 28.4318
2016 1 24.1212 12.7249 28.9178
865 1 -2.9878 13.3985 17.362
320 1 -2.31582 -0.530729 1.14798
259 1 -2.51402 39.2936 -12.277
1096 1 10.9764 0.204775 -11.7259
995 1 -17.0035 0.717205 16.9445
1407 1 0.738 -1.75702 28.2715
1745 1 -0.450182 24.392 16.5683
1636 1 -15.2017 -1.75939 2.31181
1113 1 -0.420569 25.9043 15.1628
1259 1 0.643012 14.4417 18.2338
1639 1 28.5169 14.0028 16.8332
1688 1 13.6614 14.1765 19.2426
1690 1 1.6949 0.336074 4.03196
931 1 15.8878 15.0304 2.69515
55 1 28.5705 15.1425 -10.9129
667 1 -0.132605 13.0933 0.779207
568 1 15.3635 -13.1628 2.02627
188 1 2.81802 15.5138 19.0634
642 1 18.6292 1.48387 -8.89571
1913 1 3.96831 15.0972 17.8742
312 1 5.2301 -0.183577 19.9803
389 1 18.3978 -12.5256 5.82131
527 1 19.8133 -12.3264 3.87671
624 1 -6.05958 0.390513 -11.0151
1663 1 20.4787 2.19051 -9.39611
784 1 7.92316 1.29071 -24.5433
1540 1 -6.58095 3.0192 17.1397
1025 1 -6.43979 14.6791 3.73386
1017 1 9.82881 28.9792 -10.7366
698 1 49.8478 27.0814 4.28283
604 1 25.0946 14.9063 16.9357
1778 1 10.6999 28.5548 2.24716
719 1 9.70782 13.7152 3.72065
1461 1 -1.21843 -0.554066 16.1754
317 1 12.7687 -13.8752 3.57481
83 1 11.6199 13.7981 4.04017
172 1 -0.0864119 13.3104 2.95435
351 1 12.2891 0.976538 17.7322
2034 1 13.7685 27.8747 3.46652
766 1 0.784428 13.6903 1.21447
1028 1 1.4064 -11.2039 2.53619
524 1 -12.0105 -11.8213 3.81473
1848 1 13.5615 15.1223 5.41916
804 1 2.75533 3.18293 17.1541
749 1 2.54642 0.945234 3.97912
1322 1 -10.1728 2.5318 16.4992
1917 1 5.73577 2.26378 4.32483
565 1 5.14209 15.0766 3.74576
1100 1 6.28844 3.10558 18.1325
1197 1 4.2379 29.3534 3.427
1337 1 20.4328 3.29218 2.55725
285 1 21.373 -10.6269 4.28097
723 1 8.05009 3.4583 3.3487
1489 1 22.7423 0.6727 4.38383
1232 1 10.3481 28.9872 17.4934
543 1 9.9446 -10.7968 18.0003
440 1 22.761 0.909681 16.8079
199 1 -2.84921 -11.5744 -10.6409
1032 1 -1.03819 0.524437 2.73289
373 1 12.6194 16.8232 3.4643
854 1 0.462006 -11.5183 2.23464
551 1 0.268361 -10.442 2.4784
1660 1 -0.0870593 16.8179 3.87362
744 1 0.731296 2.70237 17.1037
1938 1 0.542141 17.6357 17.3741
1874 1 1.37867 -24.335 17.8925
1170 1 16.4555 3.78596 4.5019
101 1 3.41883 2.55499 -9.59568
523 1 18.7533 16.3729 31.0286
1689 1 34.3743 -10.0594 18.6792
691 1 5.21888 3.22267 4.50116
66 1 7.40399 -23.2689 -9.66137
177 1 -5.14801 4.25793 2.9731
1682 1 23.1094 16.8779 32.6191
1440 1 7.79774 2.09878 3.61224
123 1 9.25497 -11.6663 3.8844
816 1 9.40899 17.769 3.45831
1449 1 -3.66349 17.4265 2.72284
1020 1 11.2989 2.99479 3.5023
611 1 -1.56531 17.2118 2.60838
597 1 12.5602 4.53304 3.51365
718 1 -0.661379 16.4898 15.9364
764 1 -0.345189 31.2784 16.6393
772 1 0.720734 4.98017 17.9367
803 1 0.530063 -7.92188 2.74345
194 1 -10.2497 -8.37308 17.0391
554 1 15.8822 -8.33102 3.19777
1218 1 2.7265 18.54 4.03128
107 1 16.8687 3.62779 2.41521
1331 1 -8.04936 -9.09474 3.43451
231 1 3.20598 31.4567 17.1948
1186 1 4.63466 3.94185 3.94428
512 1 20.4489 19.357 3.62288
2043 1 17.9249 7.24266 16.6608
773 1 6.15293 5.26837 4.41482
1300 1 5.09914 -8.4788 18.1992
1993 1 -7.55087 20.2358 4.15455
994 1 8.02988 -7.18461 4.44765
797 1 5.71107 5.74227 -23.8241
1907 1 20.9632 32.4082 -9.42541
1380 1 -4.44336 -8.23836 3.41847
935 1 11.4186 6.18707 2.31412
1577 1 -1.89647 3.86388 17.6199
1067 1 -3.52204 18.4874 3.51953
1597 1 12.3546 5.22671 4.28064
1026 1 -15.7689 4.30647 1.94174
1193 1 24.881 4.01587 16.6365
1406 1 26.4894 17.6576 2.0071
796 1 -13.4863 -22.3534 1.87621
1629 1 14.0638 6.56389 17.0722
321 1 14.8294 -6.60144 -10.8027
1454 1 13.6651 22.2022 3.0664
100 1 1.84771 6.80557 -9.85751
1732 1 2.14382 34.3988 2.21017
905 1 3.26554 7.12221 17.0808
61 1 2.75229 7.91777 3.76179
1545 1 3.3135 19.7807 18.5852
1964 1 3.16466 7.67829 19.7113
648 1 18.4167 -5.50341 2.76352
1939 1 6.657 -4.08138 16.9017
1114 1 -5.38986 -6.78152 2.18103
522 1 7.14962 20.6085 17.3898
934 1 7.25112 6.33376 2.63758
637 1 -5.49973 6.77206 3.20894
1942 1 9.44193 20.6739 2.0792
929 1 -4.47331 6.62571 3.10992
668 1 11.5084 20.2807 3.3047
921 1 7.94491 5.79677 3.47943
984 1 -16.5894 19.3538 -10.3905
991 1 11.2768 18.5223 -10.1106
690 1 11.8937 7.47493 -11.683
53 1 25.5037 8.65478 16.5704
733 1 11.104 7.8035 -10.2445
790 1 -1.09582 6.25183 -9.33758
1223 1 1.91092 -5.7605 2.88133
246 1 0.589915 7.64122 -23.7036
340 1 3.2246 8.16181 4.74322
1481 1 2.81261 22.7783 4.36869
182 1 17.2522 -18.2726 -23.5489
1321 1 -11.3825 8.79135 17.1888
1920 1 18.157 22.0229 17.8913
531 1 4.27595 8.07207 5.1631
944 1 5.4637 8.05014 3.59382
1301 1 4.99827 -6.37909 4.46992
1118 1 6.35035 7.5391 4.67363
694 1 3.76465 8.00976 3.52758
1202 1 19.2519 8.20953 18.6625
371 1 -6.30014 8.73603 3.51249
397 1 7.73649 7.66356 17.8591
1832 1 -4.79322 7.52148 16.5079
1737 1 -18.9811 -5.01637 -9.16781
13 1 -4.08459 7.53206 3.6988
76 1 9.86628 22.4262 5.00979
2035 1 -3.53417 6.56488 3.7303
1341 1 25.0661 6.7982 4.30964
1638 1 11.263 22.3579 18.097
1532 1 25.649 8.11201 18.5572
1045 1 12.1833 8.41004 3.91082
1401 1 13.1031 -4.73125 17.5754
166 1 -11.6953 -4.08521 17.7004
413 1 27.7761 8.50931 4.53723
949 1 1.07975 8.72648 3.07729
963 1 -10.8817 10.8113 29.8022
1054 1 18.0705 -3.97378 3.857
710 1 3.95563 10.5607 5.34147
880 1 3.85923 9.14363 -8.75699
306 1 3.8003 -16.7527 17.9634
1349 1 -8.77247 10.0803 16.2177
416 1 4.64286 22.9053 2.9632
1313 1 -8.11025 23.5697 -10.3793
93 1 5.2197 22.828 -9.68867
867 1 9.7431 10.1277 15.9011
1200 1 6.13213 -4.36562 15.4349
1055 1 7.2127 -3.18347 -9.63068
104 1 7.55739 -3.77968 16.914
250 1 21.8823 10.8274 -9.49119
1755 1 7.79032 36.3083 2.58092
358 1 -4.31706 -3.37282 17.67
1261 1 10.2342 10.9503 3.82809
1788 1 12.6778 23.7124 4.59432
1248 1 10.2 23.6463 16.9361
1749 1 12.4517 22.7026 -7.91745
940 1 -0.286926 -3.20565 17.5062
1522 1 15.1294 38.0517 4.34066
1278 1 2.35418 26.0894 4.93708
883 1 13.6025 -1.77852 17.3771
806 1 2.25689 10.688 -10.301
1346 1 3.45932 -29.2078 -9.38955
233 1 3.99174 11.1065 -10.3285
1661 1 3.23734 9.98095 17.133
1527 1 1.88573 10.4155 5.17226
384 1 3.14972 11.9042 2.32241
442 1 46.937 -1.59897 3.2289
515 1 5.18781 -2.61904 17.2717
1841 1 19.5397 -2.2988 -9.3991
1802 1 7.4669 12.8451 17.9707
758 1 6.5757 -1.33492 4.44014
1108 1 21.8679 -14.604 3.67069
113 1 8.57168 8.51371 3.4305
1613 1 25.0051 26.5896 18.0687
1855 1 23.5768 11.8908 3.0499
305 1 25.6998 -2.43315 -9.06782
367 1 12.7885 12.0941 5.16751
278 1 -0.97387 -28.6434 3.20003
2004 1 -13.788 -2.63116 32.6071
316 1 13.3897 -1.64036 -24.8312
81 1 16.4707 -3.2706 4.41941
591 1 13.5767 -0.341783 4.87215
1649 1 15.9321 13.2758 31.8729
860 1 15.882 11.4969 4.30837
1771 1 14.8948 12.2436 -11.6513
1345 1 2.54897 -13.704 17.1793
1801 1 4.59214 13.6048 4.43182
848 1 -11.187 -14.9379 31.1387
1361 1 4.73462 -14.6941 3.97203
2039 1 4.28071 14.105 30.7269
602 1 5.31734 0.499974 4.22038
1160 1 5.77773 -0.691268 17.7418
1507 1 4.97842 12.804 18.7337
1046 1 5.86535 -0.469191 5.15017
1458 1 6.48067 14.5317 16.6933
1290 1 -5.73204 0.192284 5.41883
1514 1 6.46012 0.378708 17.861
1723 1 9.47304 13.0513 14.9426
227 1 -4.79481 13.0496 16.3438
111 1 9.35563 12.6409 -9.96027
64 1 23.0693 12.3082 5.22222
429 1 24.9624 -0.554586 5.37887
146 1 12.4063 12.261 4.21036
1116 1 -2.75336 -2.10524 4.39944
1036 1 -1.96457 12.2752 5.11739
966 1 11.7166 12.9317 -10.3044
1673 1 1.11265 -1.51773 5.32509
1906 1 0.688676 0.228162 -6.68268
1244 1 0.447094 13.2483 5.79794
711 1 1.00436 14.2071 5.44917
1260 1 0.870742 15.8761 18.2609
1625 1 1.54717 0.515326 7.65949
415 1 30.2282 16.3233 6.20545
1216 1 3.74823 -0.448836 3.71039
1829 1 3.60578 0.10705 -8.20576
1862 1 17.2204 27.5674 18.1063
767 1 2.92615 12.5399 5.75295
1203 1 5.38924 2.3081 5.24496
540 1 5.26345 1.25978 6.79462
755 1 4.67711 0.710822 7.52152
662 1 3.69947 15.2992 20.1218
291 1 -7.5815 14.0667 6.17071
1748 1 8.43057 15.0406 3.90055
1265 1 7.60508 15.3926 6.52479
343 1 22.3922 13.1826 19.199
1447 1 10.9096 13.8994 19.7525
117 1 -5.38642 1.24806 -22.2676
595 1 38.6635 14.9982 18.0747
1585 1 11.936 14.1721 20.1718
1898 1 -2.07347 14.1777 -8.33867
1444 1 -0.539704 14.2332 18.2648
1069 1 12.6481 0.135329 5.65478
707 1 12.2901 1.15888 -8.22206
1791 1 27.0168 28.9777 4.18857
1524 1 14.249 16.9957 -8.82657
702 1 28.0913 26.9112 -9.66639
1902 1 15.2918 3.09254 5.26066
742 1 1.52951 15.0572 -8.80968
1062 1 0.993483 1.87049 5.60838
696 1 3.72083 1.14142 5.18457
700 1 16.178 2.37658 4.50789
1537 1 15.1102 -12.3712 6.6663
745 1 -7.33506 1.76529 18.789
1719 1 19.9084 3.47309 -8.09965
1239 1 33.2268 2.71821 6.14219
1854 1 34.477 -24.7528 -8.33009
196 1 -9.45816 2.4944 -5.45737
452 1 7.79831 15.5674 4.61246
553 1 9.23797 -12.7551 5.39899
779 1 10.4965 0.55117 -23.0693
1606 1 -5.52655 16.2902 19.5323
302 1 -2.84051 16.1281 -9.37024
828 1 -1.8821 15.7619 3.82316
1023 1 12.2733 15.3999 -9.04309
1220 1 9.70951 29.0043 18.4183
87 1 -0.913446 15.9242 19.341
2021 1 -15.5206 15.6466 19.7748
239 1 -0.258195 16.105 3.12785
1643 1 -0.0229419 -10.6162 6.9603
1570 1 -0.647564 16.35 4.5347
1405 1 14.9882 31.4076 -9.12306
1400 1 3.86602 2.18888 19.2659
981 1 31.7641 16.0753 -9.11935
90 1 4.19816 -10.2157 -8.78436
1456 1 6.09802 17.8519 18.3877
9 1 17.4218 18.0391 4.39406
1167 1 -8.97462 2.83404 6.21633
566 1 21.1493 -9.90214 -7.72026
148 1 8.18152 18.7417 19.4731
1158 1 21.4867 4.39479 5.09118
762 1 22.574 31.6551 -8.64094
1743 1 8.72449 16.0924 4.65968
2040 1 8.83692 3.40713 4.10088
1094 1 9.05842 16.4917 6.21552
1129 1 10.4358 -9.24367 -8.14144
1320 1 -3.91232 4.12792 4.60299
264 1 9.42261 18.9464 5.75809
1883 1 10.9835 15.4345 18.9713
575 1 9.05065 2.00281 5.52315
2048 1 12.7173 17.4063 18.2982
685 1 -3.20523 17.141 -8.6952
573 1 27.4262 -9.52781 4.57614
1255 1 -15.4217 2.95989 18.2881
1666 1 -0.373826 31.344 19.2762
1143 1 13.5559 16.6306 -7.97748
1450 1 0.649466 4.17472 5.39285
249 1 0.775056 18.6009 6.28843
1989 1 -25.0505 5.74755 4.42225
961 1 -0.30282 33.3746 5.4893
295 1 -10.4279 16.8457 5.25142
244 1 -11.9565 4.86612 5.19674
178 1 17.2693 3.59622 -7.53081
1548 1 -9.96234 -22.8059 -8.06021
1090 1 -11.0822 -8.61854 19.5997
1292 1 16.9784 5.65556 33.5712
1513 1 3.9733 7.22537 31.6616
71 1 -8.19768 18.606 -7.96232
74 1 -6.80265 18.3776 18.9427
1296 1 6.53627 5.54067 19.4377
274 1 -6.62501 5.97949 -22.4921
1245 1 8.5269 6.15454 19.0196
398 1 -5.27287 18.25 -9.66557
1624 1 -3.36122 -8.45811 20.2708
174 1 9.20362 18.7536 18.1199
639 1 9.48524 5.71842 -5.97096
528 1 13.4814 18.8839 4.89102
730 1 24.0257 32.3814 -8.9376
1845 1 -1.11463 7.03367 3.20637
1884 1 14.5091 19.2241 18.9905
927 1 -0.323034 4.89882 17.5754
1757 1 0.949709 6.78032 -9.43872
1665 1 15.2886 6.45975 4.95346
84 1 14.3271 7.89974 6.67219
533 1 1.26786 7.68696 -8.98295
1168 1 -0.666054 7.82498 -6.62382
1475 1 -10.7975 7.08638 4.82008
1243 1 1.05489 9.18375 6.53126
1236 1 2.92868 18.8188 4.99223
27 1 4.3077 -6.92838 -8.3969
318 1 18.8149 -5.63041 -7.73361
1607 1 17.6941 5.4935 32.884
810 1 -8.24909 -6.744 3.62093
1282 1 4.67285 -21.1092 -9.47862
1934 1 -7.43826 -6.98399 -8.37399
585 1 8.0001 7.48763 32.6029
658 1 5.50256 6.16293 -8.79424
42 1 -19.2348 5.34 4.76723
890 1 -4.07567 -7.82392 4.86807
508 1 8.76558 7.60491 18.1241
1966 1 23.0403 -6.94774 5.73221
304 1 -4.64952 6.5037 17.8005
631 1 10.564 19.1685 -8.0574
1161 1 -16.146 4.29366 18.3773
589 1 -1.32249 21.0526 -9.39011
847 1 -14.4185 -6.65578 5.0609
1183 1 -14.8861 -8.07379 19.1796
458 1 -0.299943 36.1683 6.2597
1962 1 13.5361 7.72985 5.8769
395 1 1.54748 8.33357 -9.61561
456 1 2.00775 -5.3528 5.08184
1423 1 -10.3407 6.72221 5.74286
405 1 6.62846 21.8754 -8.09706
1087 1 5.90369 8.43189 6.60524
478 1 20.5929 23.0803 5.43097
1761 1 5.4034 9.49641 5.96317
632 1 34.4905 7.50936 -7.56316
68 1 -7.30332 8.58339 4.4355
1807 1 7.35377 -5.04269 18.5493
777 1 7.96625 -4.36131 -8.16186
476 1 -7.56376 7.27107 -7.45358
1693 1 22.9524 8.85546 17.7502
115 1 7.54181 6.52997 19.3941
481 1 -3.77431 7.65285 -8.32453
289 1 21.8144 -6.13746 -20.9997
1142 1 -4.77163 -4.49786 6.04472
1494 1 10.4973 8.43838 19.4244
1877 1 -3.50678 23.1518 17.8727
2041 1 22.7762 9.55476 18.5736
1397 1 11.5542 9.08532 18.94
1228 1 10.9377 7.60662 5.22247
1386 1 -1.62249 -5.04962 21.5934
1795 1 -2.13849 5.75941 18.7075
1631 1 25.5025 6.99964 -8.32778
1125 1 11.4921 -7.51489 19.6579
1930 1 -0.62555 8.29953 5.0813
252 1 14.7934 8.3652 5.66804
1112 1 0.595894 -4.29587 3.86362
77 1 13.4236 -4.39135 4.82055
1229 1 13.9526 -4.21483 5.71561
11 1 1.53267 -4.4111 4.95089
329 1 4.93824 22.6915 5.09907
60 1 18.7231 10.1834 4.33637
1179 1 4.4273 -4.87251 -7.68798
1327 1 -7.81556 9.62784 5.0426
1010 1 -9.15839 -3.66859 5.90329
198 1 -6.03222 25.4062 4.00788
1645 1 -6.46997 -2.89024 -10.9906
1219 1 6.9813 -4.28926 4.30833
756 1 5.75939 24.2131 -7.58456
635 1 33.8247 10.5493 5.14962
408 1 23.1356 -3.57109 -7.17741
1787 1 8.01899 9.91437 -8.9169
1408 1 8.39231 9.48259 17.4395
1064 1 9.86846 9.81356 5.50685
1886 1 11.217 24.2374 18.088
809 1 -16.0989 -3.79603 3.01577
675 1 12.448 22.7405 -22.6164
1838 1 12.1063 9.67386 -7.12915
183 1 12.3576 -5.83887 5.88234
331 1 13.0696 10.0273 -8.06335
2007 1 0.779876 11.4425 18.1636
786 1 28.7027 -15.5892 3.65469
1033 1 -10.7918 24.4731 -8.31637
684 1 2.71055 23.4469 -8.4874
1144 1 2.92017 -3.80566 6.95936
145 1 2.15395 24.427 19.9169
776 1 3.18611 11.2619 20.1628
886 1 4.24279 11.0499 -7.49878
1727 1 17.0648 -3.8661 5.93904
262 1 5.46073 -1.0047 -6.65257
300 1 -8.92159 11.371 -9.14339
2027 1 4.93073 -2.96698 -8.36368
1976 1 19.869 26.033 5.7969
864 1 6.14591 -3.42565 4.15921
1704 1 5.48299 -1.98105 19.0213
1735 1 -6.64784 -0.587248 3.39129
1285 1 21.1972 10.2315 5.56131
627 1 7.34487 11.2599 5.22065
257 1 -4.44103 11.3856 -9.01016
1134 1 9.88808 -15.9184 5.56004
1095 1 8.94313 10.5694 5.18536
546 1 -1.53669 -1.53957 19.6681
932 1 -3.28475 10.5925 5.9715
382 1 11.6621 -3.58539 19.0898
1063 1 12.456 10.9911 -8.13441
1165 1 13.6092 -1.64432 -7.84023
218 1 14.0565 24.0369 4.60803
350 1 41.2222 -3.10686 -7.43474
1364 1 13.168 -0.720115 -7.75325
1713 1 15.6415 -2.07457 -21.9624
1376 1 1.35273 -0.469158 7.49145
1159 1 -12.3288 -14.8723 18.0772
1961 1 3.61608 -0.861997 18.3094
519 1 2.78261 0.687952 18.7348
181 1 4.23742 26.7505 -7.74836
499 1 2.24361 25.5778 -7.19562
641 1 3.7037 -1.8668 5.55468
37 1 -7.67202 14.4311 -8.40627
1284 1 -7.57236 -1.1127 7.8015
363 1 6.36495 12.9853 6.60521
1370 1 -5.92507 -1.32505 5.2844
692 1 7.47154 0.736425 4.69087
1571 1 6.86745 -0.134273 19.233
547 1 -8.94451 -1.58746 6.04327
560 1 10.0845 26.9926 18.3207
613 1 10.0711 -0.55097 -7.97285
1674 1 -3.26141 0.861085 5.47801
154 1 8.65368 11.5994 -7.83761
504 1 37.815 12.4043 5.24551
785 1 23.5981 -15.2737 4.37953
158 1 -2.56341 -1.01664 6.18783
673 1 12.2563 13.1666 4.72435
1820 1 0.198658 -1.41203 4.8599
1121 1 11.9769 -0.517791 6.14122
45 1 14.4056 14.9618 -6.29085
349 1 15.0891 -0.132919 22.167
1521 1 0.874481 -12.5485 22.1994
874 1 28.9006 0.172053 -7.3493
1182 1 30.0682 12.7494 8.80749
1378 1 16.1427 1.22503 21.304
69 1 2.97506 0.833334 -7.50425
838 1 -11.6731 -12.7765 -7.94569
1715 1 1.96345 -14.3529 6.67827
904 1 -9.16956 13.6118 8.71972
1384 1 5.35816 -12.1876 21.5601
1311 1 5.79821 -14.116 35.9528
919 1 -8.09835 -13.6948 7.28033
28 1 6.28285 0.847819 7.42647
16 1 9.02556 -0.362192 20.7893
1441 1 -4.49357 -13.228 -4.68204
21 1 -6.31579 -12.1748 -8.13005
1079 1 11.1392 -12.4712 -7.48167
717 1 9.88444 15.3556 19.7515
840 1 11.2726 13.4636 7.31392
210 1 11.8757 12.5448 -20.347
184 1 -3.24411 15.2826 7.04226
192 1 12.7117 13.1597 -6.85239
1077 1 11.8497 -12.8651 7.53195
1279 1 -0.55695 28.5023 19.9139
907 1 14.1821 1.10929 6.27514
813 1 -14.4287 1.17799 7.90123
882 1 14.5826 3.03734 7.29824
1904 1 1.60911 15.7539 21.2374
1187 1 15.3673 -11.0228 6.70141
1844 1 17.1214 -13.125 7.26543
379 1 -8.86145 14.5034 9.0862
687 1 20.5141 3.60633 21.7259
516 1 18.95 -10.8743 -5.77175
308 1 6.59005 1.93297 7.17861
1759 1 22.4546 17.2548 -5.2105
651 1 7.09153 16.5059 -21.0022
394 1 6.54463 1.24633 6.24265
581 1 -5.17152 1.08105 19.9565
1819 1 8.75106 16.1018 20.9156
1963 1 7.27295 14.1241 33.7105
324 1 -3.83538 2.61146 -6.77745
1442 1 10.895 15.8859 6.32565