ITEM: TIMESTEP
120000
ITEM: NUMBER OF ATOMS
2048
ITEM: BOX BOUNDS pp pp pp
0.0000000000000000e+00 1.3679807573413575e+01
0.0000000000000000e+00 1.3679807573413575e+01
0.0000000000000000e+00 1.3679807573413575e+01
ITEM: ATOMS id type xu yu zu
171 1 1.23385 27.3503 14.7322
637 1 -0.605862 -0.0207217 0.125616
1835 1 2.15772 0.293259 1.40694
1418 1 2.52325 27.264 14.138
1547 1 15.8468 -12.4034 14.2055
1061 1 2.59291 -0.662016 15.0953
482 1 3.14926 12.763 0.457106
1471 1 4.42684 0.93462 14.7743
1056 1 5.87447 0.217483 16.2418
200 1 -8.06156 15.3481 1.00393
335 1 6.2442 0.810082 -0.061927
1911 1 20.6346 0.200492 14.0056
532 1 19.9988 0.341368 1.02883
1303 1 20.7183 13.7217 -0.884164
1438 1 22.6734 27.8643 -0.170512
475 1 7.35477 0.827652 14.9638
1786 1 22.7945 14.9215 16.1005
1521 1 8.1372 1.44393 14.0862
1733 1 -3.82221 28.1653 0.653524
208 1 10.973 0.565661 0.714493
899 1 -3.6405 15.1777 28.8722
574 1 10.5106 1.48358 0.349484
366 1 0.444391 14.1579 0.614095
106 1 12.2165 0.841993 1.87984
1420 1 25.6677 -14.1771 14.1579
886 1 11.8362 13.6047 -11.916
1466 1 14.8157 1.38015 14.3859
1100 1 0.423596 2.79919 12.9958
800 1 0.0124425 1.57794 1.45448
1309 1 0.0158625 0.845397 13.2991
1966 1 15.4029 2.01264 12.4321
1524 1 15.7128 17.1672 2.96042
516 1 18.2646 -11.9611 -13.1733
1474 1 6.50797 30.4854 0.417953
334 1 3.15297 16.4315 2.83246
926 1 18.1171 15.6924 -1.00877
512 1 18.6265 16.236 13.5933
1185 1 -7.17509 1.27466 1.74384
1629 1 6.48436 2.07726 16.1859
1807 1 6.09749 -11.6228 13.9139
1689 1 21.2963 2.67198 15.6806
239 1 9.08613 15.5722 0.025854
920 1 7.79575 3.7539 1.56663
1650 1 7.79084 15.093 16.0337
1251 1 -4.24557 16.5479 13.8353
1812 1 9.15848 -10.2225 14.9224
910 1 9.89688 1.12579 -14.0569
1554 1 23.5838 -11.3352 14.6802
315 1 8.55566 17.8373 0.582271
1255 1 -3.35927 2.34365 13.4017
1178 1 11.4089 1.51107 14.9506
1526 1 -2.13128 1.35655 13.7974
411 1 12.878 1.59472 -0.642457
1770 1 13.1899 1.45422 14.1733
1375 1 15.4879 -11.2908 0.738659
1564 1 13.7069 3.21495 14.3337
757 1 1.51095 2.86143 -0.67767
1595 1 -11.4404 16.3474 16.1062
733 1 17.9117 17.1239 -11.9929
1445 1 2.02175 16.8168 15.2063
1118 1 4.5285 4.6296 14.6631
1029 1 3.01557 -10.1593 15.8039
832 1 19.0722 16.5503 1.02602
1860 1 4.48861 16.0146 15.1624
579 1 19.9551 3.15911 2.2697
419 1 5.54248 4.02982 1.13723
1665 1 6.21072 5.62279 2.03201
491 1 -6.80459 19.804 -12.7572
894 1 6.71852 4.68993 15.1657
362 1 8.4551 -8.17648 0.717599
954 1 6.40361 15.9861 -12.4764
1341 1 20.881 5.32759 2.11188
236 1 8.31682 2.75329 1.25054
1854 1 37.2167 -23.4469 0.561213
801 1 -5.40727 4.40295 -0.421184
1152 1 10.7599 4.22184 13.5799
1301 1 11.3194 4.18251 0.845744
1866 1 11.2062 -11.0307 14.5809
1269 1 -1.96966 17.2045 13.7578
557 1 13.3039 2.47419 -13.8013
1528 1 -0.589849 18.5715 15.1188
1456 1 12.066 2.2906 14.0391
165 1 1.1728 16.8696 -13.3084
1276 1 3.34655 -11.1641 -11.8155
1593 1 14.7511 5.26083 29.2578
1226 1 16.5744 5.01459 1.61148
710 1 4.75902 20.2639 0.0471744
897 1 3.45304 5.31126 14.4465
241 1 4.91973 5.58131 0.637194
631 1 6.50656 19.1552 0.0141406
1857 1 7.72331 -6.64852 14.865
211 1 -6.25267 4.92116 -13.3576
193 1 -6.44866 7.4848 -13.3679
533 1 8.29123 7.71193 0.360046
1281 1 -5.90749 -7.74087 0.159427
1600 1 9.52813 5.20641 14.4982
1002 1 9.45032 20.0777 15.1509
630 1 8.6206 -9.02069 16.1034
459 1 9.80121 4.38151 15.316
48 1 10.2567 7.53316 1.58327
606 1 22.7246 7.47648 1.02145
861 1 12.1332 3.35233 -12.4916
273 1 10.3571 3.65299 12.6167
986 1 13.8138 5.39686 14.5846
1990 1 14.0378 4.46466 1.59788
1628 1 -2.23851 -7.87544 14.5305
896 1 0.134765 5.0594 16.0613
845 1 14.5574 6.07276 1.25339
86 1 41.6937 -5.93911 1.91927
332 1 -1.00502 7.05921 1.148
1664 1 15.6016 19.9268 -13.0279
555 1 16.4584 6.25315 14.8692
2024 1 1.84895 5.99425 15.5466
145 1 3.06197 20.7655 14.1285
1217 1 -11.6962 7.20508 0.358306
1383 1 3.62422 8.08647 27.8829
345 1 17.7939 20.8813 0.635655
1509 1 5.5416 6.77793 1.31873
248 1 18.5676 19.9129 2.20334
2023 1 -6.24471 8.16189 1.11357
1817 1 19.6012 -5.68941 14.5354
1431 1 6.4143 8.08237 13.5924
96 1 21.7855 8.79933 14.2616
498 1 8.82462 20.8424 -0.76934
1955 1 -5.20523 6.5446 14.2492
357 1 11.559 8.01347 -0.696807
513 1 23.2841 -19.4229 -0.525304
761 1 10.5508 4.8783 0.739531
744 1 10.3903 5.74971 15.1388
1491 1 12.8831 6.03268 28.8124
956 1 -1.96026 20.2982 1.51056
274 1 -1.47698 -7.17397 -13.2067
414 1 14.0565 9.38254 0.19097
1123 1 -13.2598 7.61707 0.900945
1905 1 29.6178 8.67196 14.8287
217 1 15.8911 21.9705 0.247082
682 1 2.58466 6.70582 2.1653
46 1 4.43178 -4.2094 -1.16129
109 1 17.6673 -4.10966 0.759896
728 1 3.34965 22.9059 -0.0665854
542 1 4.78379 -5.93383 -0.131181
1340 1 4.96579 8.64832 27.8118
1239 1 33.732 9.61575 14.5371
45 1 7.70679 8.86972 -11.7848
1792 1 7.32778 23.6212 14.5889
1436 1 21.5627 9.15702 26.4161
644 1 -6.22469 -2.62829 14.4102
135 1 -16.9652 22.6819 27.8625
65 1 8.53593 9.95675 15.4655
1624 1 7.68775 -5.4773 13.3219
843 1 38.42 7.84273 13.9743
1128 1 9.38618 -4.09393 14.4438
1017 1 -1.59467 21.5746 0.197794
1159 1 -1.24978 -17.5975 1.06128
258 1 10.8761 8.38704 -12.5625
1213 1 11.4101 9.67658 14.3245
1115 1 -0.320594 -6.28277 15.4038
430 1 -0.702751 22.2004 15.3207
1476 1 0.733026 23.5546 -0.684731
2046 1 16.1893 10.8925 15.1274
750 1 1.26572 9.15312 0.856761
1746 1 15.0255 9.09602 13.478
973 1 2.15991 -3.93876 14.9041
521 1 16.7371 -3.58964 0.824614
1086 1 4.58255 -1.96465 1.20778
981 1 33.9938 10.4911 -13.4462
1870 1 4.47883 -15.734 12.1122
661 1 4.9775 24.7274 1.91628
304 1 -8.88348 -3.41633 14.8217
434 1 5.34401 11.4178 12.6761
397 1 6.38009 11.0925 13.108
1136 1 7.07591 8.89182 0.359493
481 1 -7.39467 9.86143 -0.42729
1469 1 8.11759 10.2017 -0.925868
908 1 8.36153 11.4101 1.335
794 1 7.42473 -2.76577 27.0123
443 1 9.69145 9.14437 -14.1254
1881 1 11.558 9.70268 12.6154
138 1 10.9295 9.41801 -12.1511
664 1 9.94009 21.6957 -13.3212
698 1 40.7073 22.7136 -0.79047
1968 1 -1.76385 22.3481 14.6475
1070 1 -1.25946 -6.03739 15.9443
1247 1 13.1818 10.0469 14.0639
1460 1 28.2777 11.4425 15.1366
971 1 -11.3796 -3.11742 0.182768
771 1 14.5093 11.1459 14.0266
960 1 16.361 24.5961 26.5651
149 1 -11.8534 11.4626 -12.98
837 1 2.82703 -1.78461 0.746684
1370 1 -10.0047 -2.37161 12.8358
69 1 3.22728 -2.66002 0.241317
1674 1 4.90017 -0.624635 2.16813
1705 1 17.341 26.1341 14.974
780 1 4.77424 -0.622848 -0.453034
1724 1 19.4996 24.2245 14.5784
310 1 4.80147 12.9988 3.2457
583 1 5.70354 -1.96695 1.3792
253 1 -7.16381 -1.48356 -0.345174
1929 1 -3.51063 11.1896 0.325286
1283 1 12.344 -3.05322 0.452899
1801 1 -2.59361 10.7457 0.581792
1915 1 22.9151 10.9277 14.4653
445 1 11.5559 11.6139 0.795789
488 1 -2.44238 12.3321 1.71265
1657 1 12.4839 9.67442 26.9028
20 1 13.013 -2.38212 1.58763
87 1 -1.09598 11.8556 14.0996
851 1 13.0066 10.9356 -0.535795
496 1 0.289572 11.4524 26.7804
1468 1 13.377 12.2646 14.9279
1369 1 1.1572 12.2763 -0.352401
2000 1 13.7978 13.5562 15.0944
942 1 14.7188 0.156393 2.37552
859 1 15.0512 -0.344389 13.6967
650 1 4.44785 13.7168 0.308095
1343 1 16.3652 12.1377 -0.472411
1906 1 1.27636 -0.954294 1.62118
340 1 1.21677 11.5338 2.85442
2019 1 3.88144 13.3036 16.2303
906 1 -11.637 26.126 0.220657
1927 1 3.86715 11.8045 13.8574
1824 1 18.2776 -1.06836 14.1245
134 1 5.55093 13.0718 -13.1333
1215 1 18.7892 13.6749 1.33435
371 1 -9.90189 13.531 1.22074
159 1 5.40269 14.2276 14.1716
1757 1 7.97135 -0.968256 -0.701993
1407 1 7.37557 -0.698305 28.0523
2034 1 8.06934 27.6854 14.2001
205 1 -4.36815 12.1429 0.759828
294 1 -4.68012 13.6196 14.5637
346 1 -3.6968 -14.1588 -12.9283
713 1 10.0473 25.9606 0.0528961
98 1 -3.2703 -1.61259 1.04274
1332 1 13.0919 -0.850731 15.844
1220 1 10.5605 26.8643 15.387
1565 1 10.9991 -0.987455 27.7421
1126 1 -1.46248 12.1311 15.1482
1242 1 12.1138 0.657385 14.5741
654 1 1.10352 29.3902 -11.9694
1702 1 -12.9103 0.917886 15.2014
597 1 15.5958 -0.452936 2.20541
1258 1 -11.9453 13.7233 3.12047
614 1 1.89417 0.819439 16.2333
1646 1 2.78127 -13.7906 -11.0735
1892 1 2.73542 0.720561 29.5083
982 1 4.01666 15.5505 3.46599
714 1 -8.03366 15.9062 15.5937
1357 1 4.23159 13.7232 3.62925
983 1 19.2557 14.7594 2.14034
1545 1 3.5319 14.666 16.5299
1536 1 6.90308 13.3786 2.32058
1708 1 -3.7562 13.3891 2.60365
1645 1 -4.16855 -0.679381 -11.9447
317 1 -3.67319 -11.9841 2.80067
1451 1 9.70869 0.379859 1.80021
1840 1 -2.60057 1.48849 3.45221
418 1 9.56469 15.9473 29.4546
435 1 -2.76494 14.3582 1.77171
1584 1 13.0914 14.3995 1.23847
1409 1 -1.48332 13.0355 16.2456
219 1 12.7975 13.9847 2.4634
1916 1 0.436382 1.84623 16.0531
1886 1 14.8073 16.6354 16.119
53 1 28.1393 2.13538 17.4048
1788 1 15.0185 16.6352 3.50927
453 1 -11.704 15.8003 3.95186
1643 1 3.52076 -12.2776 1.74914
1035 1 2.16167 1.77576 1.59777
1305 1 4.21277 2.46959 2.64419
330 1 15.1829 1.95367 2.96959
41 1 -8.81688 -11.9383 2.32188
692 1 4.39214 0.401198 2.19332
913 1 20.8441 2.47976 17.3332
1839 1 6.74052 -12.8434 16.2909
1392 1 8.01342 1.12227 17.1088
1360 1 7.89697 -10.9021 4.2521
1090 1 -5.95266 0.459691 16.3401
1410 1 8.39405 0.644158 1.58222
593 1 8.54649 2.25517 3.64465
1026 1 -18.4395 1.85287 1.1889
1015 1 -5.05027 15.949 2.48335
378 1 24.239 2.49904 1.75546
1810 1 11.759 2.14594 15.7762
206 1 -0.522404 15.022 2.29121
1609 1 -1.9757 2.8038 16.5882
1611 1 12.5885 -11.8792 15.03
1913 1 12.9132 16.0774 16.0957
379 1 -1.40852 15.2502 2.78278
1848 1 13.2727 17.4367 1.39293
428 1 -1.63577 17.6483 3.18746
1511 1 16.7597 29.3995 1.03977
1225 1 4.2267 17.233 2.87185
398 1 0.328261 16.2207 1.36993
198 1 -11.2567 16.7326 3.78711
2025 1 5.24024 16.57 2.79077
292 1 5.20157 3.65872 2.05513
741 1 6.73289 17.1706 14.9854
1578 1 19.5492 -10.0361 3.1517
1096 1 18.7466 4.91043 1.81013
1199 1 7.55284 1.92947 1.34812
309 1 6.06922 -9.42961 2.12897
915 1 7.02404 5.09597 3.80096
225 1 -20.2251 -10.0428 2.4099
412 1 22.3185 3.23458 -11.5527
928 1 -5.92785 5.90554 15.0974
1698 1 -5.47678 4.12296 16.9832
1910 1 24.2785 3.54657 15.0024
95 1 -4.28168 17.6809 2.57329
1214 1 21.5864 32.259 15.149
1245 1 11.4324 3.15996 15.6025
1112 1 -4.51684 2.98095 3.15325
1323 1 -0.711295 2.72379 1.25487
840 1 14.5338 17.1872 15.1634
237 1 0.471141 3.79533 -10.6839
339 1 12.4438 19.0863 15.9127
139 1 12.0556 17.8294 -11.7506
931 1 3.68374 20.11 2.29744
1872 1 -10.9258 4.51324 2.5032
1057 1 1.93002 -9.14674 15.3556
1025 1 -9.33502 18.0949 2.24229
1207 1 4.26061 5.40738 16.4601
1683 1 4.03191 5.37846 15.3807
1692 1 18.0586 18.4499 17.8045
218 1 5.74272 19.1595 2.88267
675 1 5.19549 20.3647 -10.5056
1828 1 6.99905 20.315 2.09708
1793 1 7.84396 6.0484 17.1344
1568 1 6.67663 5.90838 16.6586
1449 1 -4.56986 5.31242 1.7302
607 1 35.8971 6.38817 1.81115
336 1 8.72164 18.6952 17.4964
966 1 -3.80564 19.5626 2.36246
1089 1 -1.78137 4.99738 15.0321
721 1 11.0229 20.1487 16.9383
1982 1 11.0077 4.72214 15.4673
1148 1 11.4978 19.6904 2.30461
287 1 12.9261 4.35818 2.55707
156 1 25.6427 20.5511 4.09629
1938 1 1.19789 6.91203 15.8671
798 1 2.56765 5.76742 -11.0431
314 1 15.3236 5.08135 -10.8267
613 1 1.41723 -6.70681 -12.4825
1048 1 3.39999 7.28547 15.1667
1772 1 4.28989 6.45086 1.31873
1363 1 -8.94052 -6.37978 1.87597
1257 1 18.6427 21.5357 14.7535
770 1 -7.18151 -6.55785 14.9431
900 1 5.96942 -5.93434 15.9088
540 1 -7.20039 8.62866 1.34104
229 1 -6.28192 20.569 -10.553
578 1 8.36269 7.60392 1.80252
2021 1 -6.93053 7.58244 17.4037
1043 1 -5.41102 -6.18696 2.87699
1744 1 -4.27492 6.92246 16.0688
331 1 8.86937 8.37963 -12.4669
1122 1 10.3915 7.18892 16.7845
306 1 10.3431 -5.48715 2.446
903 1 -3.14224 6.65406 15.9061
1979 1 -2.07975 7.64066 14.9738
1390 1 26.4051 20.5793 17.1754
56 1 -2.56995 21.2527 2.39516
350 1 26.2913 -6.97328 2.26669
61 1 1.37407 8.04332 0.850933
783 1 0.983056 -19.6976 -10.7059
1932 1 15.2027 -5.30364 15.7355
756 1 3.51289 22.4031 2.44496
1865 1 15.9431 7.62639 1.399
280 1 5.67554 9.86133 1.7581
257 1 3.82216 10.747 1.1529
395 1 4.13063 8.23779 1.41166
706 1 3.56998 7.64613 -10.3422
1293 1 19.0881 22.949 1.01204
1272 1 5.56276 8.73935 1.89693
107 1 6.12316 9.32595 2.57343
1890 1 7.06343 -5.9574 2.1068
2043 1 21.0264 9.02901 2.91978
1450 1 8.31062 8.46966 2.56307
1895 1 7.647 -3.77342 2.22295
2010 1 10.8634 20.6953 0.897027
805 1 8.34356 10.1042 0.750706
295 1 -4.35033 8.08885 2.24208
1031 1 -3.70587 -5.13265 -12.1745
490 1 -2.61922 22.6582 -24.7994
460 1 0.293666 -4.97889 14.8321
27 1 0.818112 -4.86654 -10.8739
179 1 13.4248 22.139 2.78451
1847 1 12.6605 9.71357 17.3102
1234 1 -0.279927 9.70212 1.324
1845 1 0.20643 9.36901 15.8362
1776 1 13.8102 9.95053 30.7199
1093 1 13.8103 -5.74679 17.2832
1154 1 4.61293 10.8317 16.5692
1498 1 1.40477 23.4314 15.595
1202 1 17.1859 11.3487 15.7172
748 1 -9.55875 9.17886 1.64989
1537 1 16.831 -4.66532 14.612
1120 1 20.0951 11.1992 15.8097
825 1 20.4612 10.2887 2.51137
725 1 -6.86475 23.1293 1.75918
384 1 -7.19646 11.504 0.580927
1959 1 -6.15338 23.7714 3.33902
1200 1 6.92176 -2.54259 3.0264
1495 1 9.53182 23.8134 -12.0076
640 1 20.7889 -16.693 15.3149
1981 1 9.22913 9.05581 15.6558
1825 1 -16.9012 -3.68028 0.832696
1525 1 10.3299 9.91737 2.32319
1359 1 -2.33862 10.0611 16.3014
1320 1 -0.924109 10.2988 2.00267
1492 1 25.6068 -18.7115 15.7588
1365 1 13.0599 8.985 0.597204
221 1 12.8143 9.18673 2.39291
1986 1 0.0652395 23.2952 18.2127
1758 1 14.2094 24.083 1.29126
11 1 1.55183 -3.13616 1.13772
1713 1 15.7969 -2.54589 -11.3022
1726 1 3.76531 23.8868 29.3667
572 1 -9.55479 12.1934 2.40445
1826 1 2.64559 10.5802 17.0486
1072 1 3.4784 -2.54076 3.04949
602 1 5.71313 -3.23308 2.6441
2009 1 -6.35946 11.7255 1.53725
818 1 19.0403 11.9274 2.44335
668 1 7.64301 11.7308 2.53065
16 1 8.02172 10.7615 16.0763
508 1 8.62967 11.5744 16.6628
121 1 11.7634 9.85404 1.82
1656 1 10.7299 -2.60484 3.40317
1869 1 11.9733 24.6008 15.3224
1969 1 11.5768 11.0378 16.5124
776 1 -1.5531 11.9 16.1801
1376 1 0.110508 -1.77455 2.26694
1765 1 -0.247842 11.0321 14.324
1784 1 13.6331 24.2079 2.48688
42 1 -14.667 13.063 14.8897
1958 1 0.305796 13.1152 16.0909
854 1 1.59555 -2.93172 3.34991
1401 1 15.9355 -1.70708 15.4217
1690 1 0.479479 12.3757 4.74279
9 1 14.6452 10.7334 2.26443
44 1 -10.5706 -1.22622 2.27817
547 1 -9.67899 -1.4619 3.43718
2033 1 3.96346 13.4427 4.69311
1560 1 -7.90453 -0.809682 2.67643
1530 1 5.58957 26.9291 4.43012
455 1 -7.87002 13.0395 1.53937
1232 1 6.42661 25.888 15.8264
1352 1 -7.34921 13.4015 3.53378
2045 1 22.3319 13.3831 2.03746
167 1 -5.99652 13.5227 1.61259
684 1 22.2024 26.0121 0.216834
104 1 7.33967 -1.59307 13.8606
1814 1 8.10848 12.2806 17.3136
2027 1 10.0359 -1.51095 2.04388
266 1 -3.10712 -3.01527 15.189
1794 1 11.0348 -0.194862 2.51623
75 1 -4.26207 11.4239 1.62696
524 1 -3.81254 -3.00256 2.72629
2016 1 11.3355 13.5517 17.4137
1237 1 11.0393 25.6922 2.69846
1278 1 -1.20538 13.425 4.49268
1121 1 12.6968 -0.320391 3.51561
188 1 13.7772 14.1259 15.9059
1457 1 0.7467 28.3587 16.7491
977 1 13.3793 14.6148 3.29819
739 1 0.227938 28.6454 4.14646
1768 1 0.808189 13.8979 17.6415
866 1 -11.7623 0.193917 4.2177
235 1 2.71101 14.2989 -10.3029
1684 1 2.94762 -0.317047 18.9904
933 1 3.11749 13.8703 -9.45336
765 1 5.14179 14.6256 18.3141
243 1 4.75463 0.960421 -10.545
701 1 20.5656 1.47492 17.6496
1262 1 -7.79484 1.56872 16.7546
170 1 7.21628 0.0547196 -10.2817
1591 1 8.51939 0.170827 3.46986
133 1 -4.476 14.7047 3.39068
891 1 20.9142 12.9644 17.8479
17 1 -3.5031 0.0699139 3.47428
102 1 -2.02433 15.0245 -9.32829
550 1 -0.849938 -12.4368 18.0107
1482 1 -2.22772 0.771512 2.77031
34 1 -2.81822 14.2271 4.20503
1640 1 24.246 2.43065 3.39011
1721 1 25.8924 14.1852 17.4441
436 1 -13.7009 16.7811 2.12698
1063 1 12.6725 3.13588 3.3353
1912 1 0.350287 2.8303 16.8163
997 1 0.500778 29.6032 5.0078
930 1 -12.008 14.6648 17.1805
1454 1 17.6971 14.6185 17.7758
737 1 -10.6242 15.6845 18.2071
1104 1 18.8716 2.64818 -8.77048
726 1 3.00467 15.5185 3.48725
483 1 4.60808 2.79789 3.95433
1496 1 18.5885 1.70766 17.5273
658 1 6.14942 2.65202 3.54681
1987 1 -7.87671 15.6632 17.9908
1229 1 7.13225 3.8147 3.56436
503 1 -5.53086 16.2284 5.35149
690 1 7.92223 4.29713 -9.39905
890 1 -5.78015 1.72887 4.49012
742 1 -4.71112 2.89332 -9.38271
279 1 23.826 -12.4379 3.7832
405 1 -3.67087 16.8018 -11.1559
88 1 10.9297 1.61132 2.30825
1781 1 10.6502 17.4863 5.39355
569 1 11.8021 2.15758 3.74932
537 1 12.5388 2.60991 4.31351
1648 1 13.646 2.91981 17.8224
394 1 1.03821 4.72441 3.52248
772 1 0.460981 4.54638 18.1734
1534 1 -0.196566 17.5703 3.75514
196 1 -12.8922 3.65409 -9.70799
1499 1 29.239 4.02933 17.4465
1155 1 3.57712 3.022 3.78007
446 1 16.7775 3.76916 -10.4692
1361 1 3.35922 -11.1225 5.57064
494 1 4.40633 15.4606 -8.87124
580 1 4.84739 17.5676 3.76095
605 1 5.12194 4.62267 2.95021
502 1 20.3187 18.3362 2.91444
1473 1 19.6105 33.3878 3.87997
1819 1 6.93898 3.04997 18.313
560 1 6.56428 17.8385 17.9974
1701 1 -6.06206 19.2886 4.56248
1769 1 8.60981 32.1015 18.8061
1728 1 7.87758 16.746 16.8233
1486 1 9.78573 16.0055 17.7058
400 1 -2.88658 17.7059 16.5428
1194 1 10.1643 17.2602 3.78253
1205 1 -3.06674 16.63 18.1657
189 1 11.441 4.0698 -8.99777
514 1 -2.25291 3.24731 -9.75286
1802 1 12.4681 17.0294 15.9364
563 1 -1.47939 4.09544 5.39009
401 1 12.5705 19.6614 4.20285
1347 1 1.00302 6.15247 3.39623
1984 1 12.7041 -7.85774 16.8228
1919 1 14.9144 -9.799 2.33175
426 1 1.10002 19.3111 4.29584
486 1 0.138514 18.8393 3.37222
234 1 1.48608 3.13204 4.54974
670 1 2.46727 4.91389 -9.81272
589 1 1.36249 19.8701 5.16822
1051 1 30.775 5.04311 4.17683
2001 1 3.7419 -9.05417 3.36452
697 1 19.7634 5.04156 3.68285
312 1 4.14344 5.79398 17.8296
1960 1 -8.74572 19.257 3.61956
97 1 -9.74743 2.89987 4.75987
1064 1 4.81626 6.4671 4.15904
1414 1 -4.80199 19.2715 3.035
700 1 21.3102 6.21904 5.85517
1507 1 -4.10805 19.2967 18.6137
1362 1 8.92061 3.83993 3.94238
127 1 10.1121 18.6109 -11.0541
1432 1 11.7514 18.6226 -10.8669
216 1 10.6811 19.2893 4.14704
422 1 -1.17945 17.3692 -9.39232
1149 1 0.0269743 6.80693 4.07858
1572 1 -13.5874 7.07922 16.6415
523 1 14.8269 7.16603 17.8227
150 1 -2.14854 6.04136 -9.05647
1706 1 -12.7893 6.79317 5.97579
1729 1 2.12013 19.6381 30.9589
1884 1 15.8111 20.6285 17.8966
447 1 30.7317 5.83489 3.40326
51 1 -9.25807 7.39321 -10.7662
950 1 3.04233 6.01528 -9.30611
609 1 4.15154 -7.11978 -10.4179
1988 1 5.55393 7.76153 17.2092
108 1 5.90833 6.63638 15.9161
679 1 6.32965 6.78515 3.06489
762 1 20.4731 21.8673 -9.02462
1427 1 -5.57851 7.12027 3.89315
1863 1 22.0549 7.21586 32.9685
28 1 7.8388 6.66392 4.96804
616 1 9.81063 5.65819 3.41776
413 1 22.4665 6.35762 4.42514
1271 1 9.13099 6.52714 17.0931
797 1 9.4716 6.62914 -8.26007
1859 1 -2.02547 5.75277 17.3415
1805 1 25.4711 6.87068 2.7357
1522 1 9.92449 20.1213 4.26878
347 1 11.6513 7.67057 17.0998
1435 1 -2.5786 20.7765 5.10675
806 1 2.63098 7.68792 5.43314
1748 1 12.9448 7.71798 4.13999
1703 1 -13.1291 -4.71383 3.80153
424 1 -10.6443 6.79818 3.19239
1888 1 1.88524 6.83698 3.00362
1315 1 -9.35651 9.29473 3.19439
1036 1 2.40896 7.78374 16.3838
1285 1 16.641 -6.16563 4.45449
249 1 6.39794 22.0888 3.07754
1897 1 4.63468 -5.35735 2.45114
1508 1 4.73177 9.79261 2.33152
902 1 -8.37712 8.80615 3.05248
1368 1 34.9252 8.15226 17.359
1975 1 19.6196 22.5749 4.05916
619 1 -5.11294 10.0226 2.82633
1885 1 7.85543 8.16713 5.54682
1415 1 -5.06298 8.09301 4.25406
1487 1 -6.06543 7.61233 18.4104
652 1 -3.72944 9.07112 -10.8336
1896 1 9.35089 -5.82636 19.0632
1662 1 9.16755 8.58941 3.30114
101 1 10.5304 8.28166 -10.1368
849 1 10.9106 -4.48933 3.7713
777 1 -3.03644 -4.06891 5.01521
1342 1 23.0443 -6.08229 17.0998
1422 1 -3.03632 7.34063 17.8713
1055 1 12.6379 -5.43454 -10.3699
1144 1 1.09675 -3.8925 4.2233
695 1 15.7948 8.95267 4.83118
1462 1 2.98537 9.59563 -11.7317
831 1 14.9755 -3.96097 3.21962
1606 1 2.09329 9.16807 16.0708
1023 1 17.3949 23.88 -10.4886
711 1 3.47437 8.91492 3.63607
712 1 7.02297 9.09355 3.995
1463 1 18.8874 9.64811 3.66696
959 1 6.79594 24.4911 4.18645
1727 1 8.1487 -4.40549 3.65628
885 1 7.75149 9.66646 4.60763
1307 1 -4.39553 8.99626 4.40462
1842 1 8.4944 11.6322 19.3004
1030 1 9.22665 10.7889 6.06459
1850 1 9.77663 -5.58895 18.0479
58 1 12.0704 -3.16699 -10.0406
342 1 10.7576 -3.25936 4.2708
1875 1 26.5764 -2.50596 2.7645
815 1 -2.03533 10.0302 5.12336
444 1 -12.01 -5.05155 3.36382
259 1 -12.9778 23.9385 -8.64372
1210 1 14.3532 10.8304 4.07321
1140 1 2.12048 -3.56875 2.58312
561 1 1.72351 10.48 4.81926
1743 1 3.02026 23.1401 2.95709
585 1 1.40039 12.5464 30.2695
1040 1 2.87169 -2.22302 4.96894
1302 1 18.0179 10.7417 3.9122
1774 1 5.57578 24.3846 17.2627
718 1 5.01765 11.7619 17.0842
1475 1 -7.60358 9.96798 18.1506
1849 1 5.00909 -2.37844 4.44639
300 1 -7.61939 11.7284 -10.2733
354 1 -6.5749 11.887 17.6218
1617 1 7.25504 -1.04348 16.789
868 1 -8.05646 -1.09971 17.3279
1289 1 -5.78886 -2.56591 3.62642
1187 1 22.6062 -1.50437 2.13372
172 1 8.7456 11.7097 4.09636
853 1 10.3094 -3.76727 3.41825
407 1 10.1581 11.1049 6.42773
501 1 -4.01088 23.6217 -8.50172
1235 1 22.0961 10.3218 3.94612
759 1 -2.41748 11.7925 17.6419
178 1 12.3722 -2.22092 -9.98019
1022 1 27.6305 -2.49323 3.17315
932 1 -0.395137 10.751 3.92157
1753 1 1.26661 11.9178 3.8292
1349 1 -13.6467 -0.162205 17.0298
296 1 3.34563 -0.464757 -10.1818
1771 1 15.7812 11.2996 -9.46395
510 1 2.20501 11.6643 3.18831
1080 1 3.41245 -1.16256 17.9234
207 1 16.0915 -14.3629 4.51104
1179 1 2.64436 1.67315 -11.1001
2038 1 5.16023 13.805 18.9212
1480 1 -9.05507 26.3712 17.8967
935 1 19.1801 12.8538 5.59749
988 1 5.67447 14.3365 3.74887
1597 1 8.41474 -1.08518 1.24084
74 1 -5.9406 12.666 15.8218
140 1 23.4714 25.7627 3.08296
320 1 -3.45998 14.3932 2.78924
480 1 23.16 9.95382 3.97105
1196 1 -4.62483 12.8864 3.24145
1284 1 -3.16394 -0.913316 3.53724
1520 1 -4.15443 11.1131 17.3919
1163 1 -2.03666 12.5706 -10.2666
618 1 9.29783 10.8009 4.71716
962 1 14.0131 12.4394 3.18689
1922 1 -0.477641 -1.18408 4.06132
415 1 26.5944 12.4309 3.02379
1277 1 13.4404 13.1023 18.5149
822 1 -11.4052 12.9087 3.51086
1260 1 1.33615 14.7525 18.28
1356 1 15.7529 -13.1444 5.21934
1559 1 0.683373 -0.0634163 18.5788
1712 1 2.45971 14.8163 4.3533
1265 1 2.46959 26.07 19.0336
633 1 17.0346 14.4726 -8.73013
1433 1 4.18239 0.674736 19.1614
1287 1 -8.71557 1.31725 5.71186
1718 1 34.8935 0.780815 19.8006
265 1 -7.05241 0.209772 4.46752
1974 1 19.6382 2.04822 19.6949
1417 1 7.68173 -13.1835 17.8609
452 1 7.36743 15.5635 6.25458
70 1 -3.99545 0.725585 5.13428
1813 1 -6.30507 -0.129485 5.11941
623 1 22.2125 -0.955945 5.51234
699 1 9.12531 0.260208 4.26894
1439 1 22.9876 13.5641 19.1083
705 1 -3.12253 0.471534 5.41626
1169 1 11.0259 14.6488 6.73338
1228 1 -1.92098 -0.690484 5.24381
912 1 -1.79445 14.8959 -8.25307
909 1 13.3922 13.9261 -9.54976
262 1 -0.685742 2.59861 -7.38563
796 1 -2.10015 -13.5378 4.69825
146 1 12.9771 15.0825 -7.88292
1619 1 -0.550142 2.21899 5.0553
1209 1 -0.415795 2.0579 3.66022
1453 1 -12.3615 14.6402 5.81443
525 1 -0.362106 0.552255 6.27036
144 1 -12.3012 1.86404 5.3762
833 1 2.25489 2.90977 -6.88524
76 1 18.2574 16.0193 5.74633
1333 1 16.4684 -10.1366 18.9804
2041 1 17.4452 1.614 19.2889
883 1 7.20171 0.855279 5.05328
302 1 -4.4309 1.3445 4.32284
333 1 22.8588 2.19655 5.09851
458 1 -4.03935 15.5552 6.02433
746 1 -5.03305 15.1971 6.57825
709 1 -4.26204 17.5527 -8.6714
943 1 -3.42427 1.70885 -8.85066
2029 1 12.2407 15.9131 5.35385
1868 1 -2.44048 2.01948 -8.60058
220 1 13.6516 14.6939 5.04774
1032 1 -12.4041 3.91708 5.25357
1562 1 13.8509 -10.8738 19.4297
1099 1 16.0193 -11.1368 5.10773
693 1 2.46851 -9.04194 -8.55523
240 1 17.8408 17.5038 19.3383
1856 1 5.89987 3.44629 17.9763
536 1 6.24491 16.4201 6.68336
1328 1 4.98644 3.59624 4.90829
531 1 7.04457 2.9168 6.01053
1736 1 5.55716 16.6789 19.5297
655 1 7.91647 17.3103 -8.66729
649 1 7.12887 4.04218 19.616
5 1 6.34318 -9.32582 -6.75419
324 1 -7.04039 5.00848 -7.59995
112 1 -4.76631 4.97647 6.12637
720 1 -2.41582 4.7492 5.67157
1304 1 10.2927 -9.21027 4.33969
2015 1 23.5632 18.0365 5.83864
1455 1 -1.96927 16.7064 5.00448
1581 1 12.8343 3.21935 5.18056
1403 1 -1.13005 4.26844 6.44828
2006 1 13.3713 3.63202 19.7482
341 1 -0.719526 5.62123 -6.80592
1141 1 13.8997 17.2782 5.0847
881 1 -0.643677 4.64115 5.55856
2 1 0.88387 18.6821 5.44312
1066 1 13.5726 -7.96309 4.18898
1294 1 -13.6163 6.11592 -7.22767
955 1 1.52713 4.74703 -9.00657
440 1 17.2917 4.94602 7.20965
1933 1 3.99385 3.94692 18.2468
735 1 2.8534 3.78046 4.3115
749 1 5.369 5.46296 4.60723
160 1 16.936 4.50257 6.14306
390 1 5.49403 4.39225 4.42503
848 1 6.95837 6.34262 17.6555
344 1 18.4749 -8.0578 5.8565
1585 1 20.9842 6.61079 7.1815
862 1 7.11439 -8.98361 4.88029
916 1 -7.99124 18.7099 5.47332
1732 1 -4.02444 18.1471 3.49178
1186 1 -4.98108 5.84622 5.53775
921 1 10.465 5.12107 5.16981
1677 1 -2.73765 19.304 6.75335
539 1 12.0009 5.01359 -8.87457
1395 1 9.71303 19.1686 19.6885
1830 1 12.6791 -7.91107 19.037
871 1 -1.46189 18.4473 3.82661
1193 1 13.0853 18.5833 18.1893
1379 1 -0.527923 4.49058 7.46227
774 1 13.0143 -6.00709 18.9203
1181 1 0.0680915 5.74908 19.0545
1113 1 1.93711 20.5692 19.4329
1047 1 14.0991 6.68465 18.6818
582 1 -11.5657 5.73717 -9.07929
564 1 -10.3753 6.28343 5.3604
1997 1 -9.15325 7.39999 17.6373
1299 1 3.76796 -8.54267 18.8115
499 1 17.5526 20.172 -7.27224
1527 1 5.69832 7.05098 4.40792
3 1 4.83189 -6.32356 5.34145
166 1 -8.07439 -7.33716 19.2346
828 1 5.33452 7.98623 4.59332
820 1 4.97411 6.41807 20.2352
1039 1 6.43402 7.70129 20.1412
1233 1 20.2897 -7.55165 -7.55406
242 1 6.81876 6.7777 -8.75718
520 1 -7.01882 -8.0097 5.04416
1720 1 10.015 6.59388 6.39888
6 1 7.71526 -8.51815 5.67124
355 1 -6.44773 7.31197 5.89648
1068 1 10.4308 -7.61211 5.26653
1887 1 11.2083 4.64313 17.5034
399 1 -18.1659 7.297 -9.14911
381 1 11.0259 6.59882 -7.29521
213 1 12.8742 6.79107 -8.93149
1033 1 11.2356 20.8631 -6.36104
326 1 -15.275 7.89434 -8.9418
1716 1 12.1416 -6.89348 5.43486
1659 1 0.348324 8.12876 4.64466
1672 1 1.48401 8.6174 5.78025
567 1 3.72046 7.22184 5.66554
1730 1 2.71801 -5.77202 20.1347
1816 1 18.0967 8.52091 4.26319
321 1 2.41916 -5.60001 3.75477
1951 1 16.8945 8.53069 18.2294
1127 1 -9.9096 6.77484 4.32277
1583 1 -9.66666 21.4326 18.4783
1406 1 33.2777 8.79021 5.25626
1540 1 -5.85049 -5.10946 18.2457
1497 1 6.8058 9.23368 4.92974
1946 1 33.6791 7.594 5.32968
385 1 -6.21998 23.2241 6.6499
753 1 8.81079 21.5483 6.35283
1312 1 9.96703 8.7574 18.8576
18 1 -2.91325 8.06431 -8.71187
1139 1 -1.79845 -4.48146 3.09973
338 1 11.5244 7.68852 5.71518
37 1 -1.68348 8.67803 -9.52326
1873 1 0.159056 8.75533 20.3545
1950 1 27.0546 -4.9383 19.1046
812 1 1.04401 -2.57525 6.49239
1000 1 2.5955 22.5219 19.5245
559 1 15.174 -5.50105 4.29986
683 1 1.56761 9.6686 5.44503
808 1 3.99711 9.14606 4.98877
153 1 3.15787 11.5243 -9.78997
1479 1 -9.94335 23.8514 4.57589
151 1 6.44836 10.0268 -10.1404
576 1 6.90048 -3.30328 5.45844
554 1 18.9278 -4.44917 4.74991
472 1 6.9021 8.68836 6.76175
368 1 5.9071 10.1001 5.47784
1389 1 -19.493 24.8916 -8.92735
1105 1 6.62154 -4.10699 -7.63697
380 1 7.6838 -4.43379 5.52557
277 1 8.69033 8.69874 5.34922
1297 1 8.40842 -3.45597 5.2568
181 1 7.63634 21.5105 6.83381
154 1 10.1354 9.44462 -7.51173
1625 1 -3.46734 7.35515 5.56611
1622 1 -1.94749 9.66694 17.77
814 1 -1.18559 -3.51381 -21.5326
784 1 11.0289 -3.75744 -7.69074
884 1 13.2271 -4.87189 4.06993
1626 1 12.496 -17.0056 18.2496
432 1 1.73765 25.5361 6.15667
1829 1 0.0381116 -3.11475 6.00671
1977 1 1.89746 10.958 33.0079
1223 1 2.6534 -3.98694 3.9758
301 1 16.1804 12.7817 21.3777
621 1 3.55209 -1.35139 5.20383
1783 1 17.7113 -2.1965 18.3491
1804 1 2.82474 -3.37863 18.7002
1074 1 4.89731 10.1168 -9.01744
1171 1 18.3578 -1.4022 5.14454
1940 1 17.9714 -2.31733 5.80081
999 1 5.96892 12.2957 4.63157
307 1 5.96694 -2.49979 18.5684
63 1 21.9344 -3.52078 6.22661
1687 1 -3.75421 12.587 32.8321
1335 1 7.53219 -1.3981 19.4454
461 1 -4.47624 11.8701 4.94095
1263 1 11.537 10.8946 5.8274
363 1 11.4223 -1.71447 5.37072
975 1 10.5188 10.5523 18.9642
1131 1 -1.76794 -2.50323 -8.83867
1259 1 -1.41345 12.2853 4.38043
1261 1 -0.507512 11.6007 4.59626
382 1 15.228 -1.8372 5.02929
111 1 1.60571 13.2023 -8.42282
1238 1 15.1821 12.9018 7.06908
1267 1 -0.676015 12.3425 -7.20178
893 1 14.3983 -2.37015 5.26383
1944 1 16.5734 12.5293 6.65931
1477 1 18.0857 13.1724 19.2142
8 1 -9.78669 10.3978 5.61598
1117 1 6.19923 1.12821 4.93419
1961 1 5.45948 0.525032 19.9233
1867 1 6.1664 13.9751 -8.11079
1983 1 6.37662 -0.329501 6.38425
1206 1 6.93335 11.6344 18.554
1442 1 6.61088 12.9465 18.9351
467 1 -5.62983 -1.51687 -8.9078
1608 1 -4.23735 -1.19423 17.7758
406 1 8.33655 -0.41899 -9.40839
830 1 10.0045 -0.211504 4.50282
2012 1 24.7056 -0.800805 5.80401
1636 1 -3.77377 11.2962 5.43311
30 1 10.2454 -15.6149 -23.0675
740 1 -2.71287 12.7595 18.3066
717 1 12.6794 26.4712 19.1309
586 1 12.6118 13.9586 -8.38609
282 1 0.878409 -13.5027 -7.47161
2026 1 0.0145817 -0.492548 19.7312
1364 1 17.2374 -0.495795 -7.5125
551 1 2.35621 0.707349 -6.97311
1244 1 3.17473 14.2919 6.11088
252 1 15.6017 13.435 6.30811
318 1 18.8348 -11.8377 -6.95331
7 1 6.47497 14.8669 5.95035
873 1 6.17973 14.2295 6.96974
869 1 -6.7573 -14.5305 20.7931
238 1 6.06414 1.09632 8.09889
1663 1 20.7995 0.162948 -6.62052
1696 1 21.63 1.54265 5.45889
1755 1 8.78987 29.1614 -5.96253
227 1 -4.67915 14.7815 19.3663
2020 1 -2.50138 14.4051 21.5491
1942 1 10.7982 15.224 5.88723
1041 1 -1.62141 -25.5039 6.25995
1374 1 -2.07085 0.346543 5.92688
1550 1 12.0531 1.08275 7.60271
1046 1 -0.665131 3.26001 7.13416
1542 1 0.335461 0.637921 7.35836
704 1 14.7524 1.14722 6.8117
703 1 14.2566 -9.3513 7.36503
1936 1 0.227804 1.56305 19.6944
1412 1 3.2747 15.984 20.9322
177 1 1.39405 -9.90717 7.03215
974 1 2.25136 15.1088 5.51863
1970 1 -23.1969 2.80213 21.3544
1042 1 2.95455 -11.9872 6.30511
1686 1 17.8543 2.3718 6.76902
1678 1 -7.35183 1.65266 7.11923
269 1 -7.30619 2.11017 -5.44181
305 1 6.93591 2.61253 -6.20061
425 1 8.15956 3.42788 -7.55967
979 1 20.5449 15.644 18.7872
646 1 -5.23855 0.770473 18.4421
1762 1 -6.5536 14.9336 -6.05345
827 1 7.84832 -10.8819 20.4847
901 1 22.7217 14.4707 -6.40194
778 1 -4.06475 -11.6323 7.1102
89 1 10.4976 2.35923 6.5048
790 1 -3.43077 2.71539 -8.16438
615 1 -2.3986 2.61027 5.9401
1996 1 -1.35482 16.9143 19.6984
1282 1 12.3588 -12.8397 -7.1374
364 1 12.7861 1.93187 7.20851
1717 1 12.838 2.8599 8.13042
911 1 14.1068 3.12206 20.551