ITEM: TIMESTEP
135000
ITEM: NUMBER OF ATOMS
2048
ITEM: BOX BOUNDS pp pp pp
0.0000000000000000e+00 1.3679807573413575e+01
0.0000000000000000e+00 1.3679807573413575e+01
0.0000000000000000e+00 1.3679807573413575e+01
ITEM: ATOMS id type xu yu zu
72 1 1.6138 -11.227 -1.16936
205 1 -11.3475 16.6856 0.92314
2019 1 2.03922 12.8751 14.3538
2002 1 -11.0103 14.5387 14.6203
922 1 5.56853 0.581032 14.187
1255 1 -10.3793 0.217154 13.2571
172 1 5.4465 13.8439 -0.553621
335 1 6.3306 -0.917547 0.255556
1407 1 6.6039 1.34647 27.4549
200 1 -7.64098 15.3854 0.924705
954 1 8.01094 14.0472 -11.8089
692 1 9.12215 -2.18294 1.21944
959 1 7.32557 28.234 -0.777502
1366 1 21.8608 13.0036 1.91114
229 1 -4.00439 28.5405 -12.1677
1323 1 -2.9321 -0.35787 0.756751
1634 1 -1.11787 14.1411 14.378
1806 1 8.88268 -12.7543 0.875168
1178 1 13.0543 -1.46082 13.3523
315 1 14.142 13.676 1.45929
1317 1 13.1128 0.81136 13.5588
1298 1 1.29847 -12.5297 14.6788
1468 1 13.8748 14.5709 14.7609
581 1 0.678338 3.30586 27.3867
2006 1 16.2246 0.0188492 14.0627
2024 1 2.16891 1.7341 14.7064
613 1 3.03234 -10.4118 -11.5841
601 1 3.47496 2.87908 1.17185
521 1 15.4685 3.57124 1.76539
1943 1 1.67148 4.89943 14.02
1384 1 3.53013 1.70111 13.5774
1528 1 4.17722 15.4601 15.1169
1798 1 5.14998 -12.1223 15.4568
614 1 5.31421 3.80462 14.4437
579 1 19.5125 2.39701 1.78771
836 1 20.7416 0.994788 2.41964
1910 1 22.433 1.87076 14.024
225 1 -20.3367 -12.8069 1.29204
1112 1 -4.81813 1.07286 2.47531
269 1 -5.50106 2.72532 -12.2813
1188 1 -5.84805 0.838296 14.226
197 1 -4.37993 1.78816 -0.599349
1822 1 9.57624 2.23395 14.7551
669 1 -3.79227 -12.2901 13.8988
1146 1 -3.14694 15.0976 14.7252
616 1 10.6281 2.54158 1.17396
1921 1 -13.0456 0.972482 13.9014
107 1 11.3663 1.9351 0.789621
1840 1 -0.578764 2.40704 2.14764
563 1 -1.34724 3.4022 -0.658622
1768 1 1.3971 15.1556 15.6989
1855 1 13.2576 16.4008 13.4569
1574 1 -0.109024 2.72464 28.3973
999 1 1.52932 16.1464 1.63038
424 1 -10.8337 4.9533 0.205851
1185 1 -9.31876 3.80893 1.10334
580 1 3.40681 17.7487 0.781342
307 1 3.5498 4.77739 16.7823
1864 1 18.5028 18.3041 28.9611
1262 1 -7.23723 3.50642 13.886
520 1 -8.54469 -10.373 1.9068
913 1 21.6068 4.25774 15.163
1891 1 -8.67106 2.35956 2.50178
1199 1 8.79018 3.60133 1.39719
1955 1 -3.44791 2.29631 13.9508
1738 1 6.77804 4.35931 14.8146
1211 1 22.4291 4.24636 27.8982
1963 1 11.4756 16.747 27.7389
584 1 9.71804 17.4251 -12.7082
646 1 -0.462817 3.50947 15.111
894 1 10.3731 4.55297 13.2994
1218 1 -1.04327 16.42 14.2509
2041 1 13.4255 3.80819 14.063
1745 1 -1.7204 17.7458 14.3092
809 1 -12.5347 -7.8253 0.81118
1449 1 1.56829 6.05619 1.81235
765 1 0.835793 17.5797 15.6883
303 1 0.0510249 3.72104 -0.734818
1047 1 15.8165 5.73765 13.2073
145 1 2.3282 20.3016 14.6514
1940 1 18.1705 6.67687 0.726269
1029 1 3.85245 -8.35798 14.0219
1513 1 3.27099 6.13542 27.7364
232 1 4.33186 19.2012 1.27374
475 1 4.77307 4.70733 14.2921
518 1 5.74753 -8.22272 1.91574
1155 1 7.59 7.10401 1.35129
1075 1 7.90054 18.8413 1.18198
1064 1 7.31519 6.27394 0.687032
159 1 7.94574 18.7947 15.9622
1063 1 8.52404 8.02541 0.976405
832 1 22.8347 19.6482 0.725876
677 1 8.88593 18.3506 15.3804
1354 1 23.5406 3.63669 13.6165
266 1 -2.4582 -8.73876 15.6904
1676 1 -2.88665 5.50648 14.8283
1926 1 -16.1124 6.63695 14.3819
1788 1 10.5997 18.1079 1.15844
772 1 -1.79545 5.17855 14.8673
860 1 12.8218 4.69057 0.603149
1045 1 14.0266 5.99035 1.24237
1401 1 13.8855 -7.49515 13.3077
781 1 16.8152 -18.6316 0.267091
234 1 1.36669 8.29422 0.337677
1600 1 16.9018 7.19854 14.2566
525 1 1.58076 6.48633 -0.0615641
1226 1 17.9537 8.75852 0.421731
2025 1 4.42799 21.424 1.54
321 1 4.85579 -5.67172 -0.334418
297 1 5.59779 -7.56748 0.903399
215 1 5.76183 6.95291 -0.165944
108 1 5.85464 4.72674 14.7119
1578 1 18.8047 -5.41177 0.979575
162 1 6.78467 7.23325 -13.3722
402 1 22.4926 6.95354 15.721
744 1 9.89686 6.69457 15.6527
540 1 -3.13525 5.66228 2.21669
75 1 -5.3067 6.72203 0.74983
1732 1 -1.5817 19.324 2.23294
1173 1 -1.42114 6.85196 13.5462
1415 1 -0.375804 6.67617 0.329913
813 1 -15.1392 7.81291 14.4243
1340 1 2.7104 9.09011 26.7602
688 1 0.869766 9.24125 0.388009
1572 1 -11.2704 10.171 14.46
14 1 14.5887 -6.37538 0.0465813
1048 1 1.30555 6.76688 14.649
1743 1 2.14703 22.747 0.336008
694 1 2.27825 9.81811 -1.19616
131 1 3.53381 9.3695 -12.6113
706 1 2.99447 9.96236 -13.7828
1527 1 4.33918 9.89873 1.64921
52 1 4.54811 11.209 14.3973
1731 1 -8.38066 24.4725 15.1875
193 1 -8.56487 10.3728 -13.5711
949 1 -6.9541 9.18675 1.745
1857 1 8.04744 -5.86562 15.8974
971 1 -6.21784 -5.44727 1.37217
1402 1 23.1087 -5.14154 14.8118
1688 1 9.01811 8.14451 15.75
369 1 9.34309 9.23629 15.7103
1586 1 -4.27464 7.44981 14.9147
1691 1 -2.75508 7.68406 1.30727
1417 1 10.4853 -18.7854 13.6972
135 1 -17.827 21.9498 27.4381
355 1 -3.16679 6.40819 2.95624
703 1 11.9313 -5.0541 0.160176
384 1 -2.24301 8.83027 -0.843589
1622 1 -2.66679 10.2825 14.9054
1628 1 -1.07707 -6.93579 14.8337
336 1 11.9203 21.6021 12.9857
1497 1 13.1136 7.8456 1.37679
966 1 -0.972352 22.5318 -0.483095
1907 1 14.1312 23.8326 1.5308
672 1 14.9161 23.8568 27.9312
585 1 2.07344 10.9869 27.6483
987 1 3.3289 10.9241 -13.3853
1471 1 3.31409 -3.32403 14.9109
748 1 -10.2383 10.8504 2.25887
1396 1 18.556 11.8567 28.9796
545 1 -8.13157 11.2226 0.589412
948 1 6.2251 9.83939 12.9171
547 1 -7.33567 -1.84592 -0.414821
666 1 6.90489 11.0344 -0.885102
1653 1 6.31815 -3.06346 13.6037
1927 1 6.29313 10.9902 15.4954
1394 1 8.57891 -4.54432 28.1139
1300 1 8.31042 -3.68562 13.45
1782 1 -5.21383 24.7324 27.9399
434 1 9.87625 9.37895 14.1085
324 1 -3.43945 -3.9645 -12.2779
1702 1 -15.9882 -3.09165 12.4858
1355 1 -3.70032 -2.17949 27.4895
42 1 -15.6503 9.69616 13.6396
357 1 15.211 9.73746 1.51972
35 1 0.645893 -15.8824 0.300806
855 1 3.8965 -2.67378 16.9656
1261 1 3.0975 12.6468 1.98887
1690 1 1.43321 11.399 -0.578675
1613 1 17.3941 25.0173 15.0975
1332 1 17.5893 -0.808665 14.6889
239 1 5.50255 12.2556 0.652344
395 1 6.2902 11.8637 1.34506
1437 1 19.4611 -2.78566 -0.971039
207 1 19.2848 -14.4899 2.38513
1972 1 20.7663 -2.41868 14.7422
1937 1 8.33538 11.3694 26.2414
1467 1 23.8813 -2.8637 15.7705
194 1 -5.41586 -1.74744 27.4828
1561 1 -3.77214 10.8659 14.805
1435 1 -2.27868 10.1002 2.58727
1341 1 23.9579 -0.0782814 1.66178
773 1 9.94192 -0.921312 2.26678
1247 1 10.7555 10.5717 13.7599
1639 1 24.0361 11.0412 17.5741
1789 1 -1.12361 11.9527 14.3494
274 1 -1.11126 -3.23505 -15.4341
288 1 13.4259 -2.5771 14.6064
542 1 -0.735263 -0.262369 -0.30106
522 1 1.12672 13.3858 13.7365
1726 1 1.87035 25.5361 28.3975
1984 1 13.7794 0.0527962 14.0628
1740 1 0.997028 12.7865 15.2203
644 1 -12.3221 -1.39185 13.5676
1364 1 17.5586 -0.483984 -13.6426
253 1 -9.1386 0.383016 -0.0311842
1457 1 2.89028 26.4204 13.4411
1632 1 18.5799 -0.871159 -0.330877
872 1 4.55446 -14.076 -1.20327
378 1 19.9024 -0.650815 -1.03418
698 1 47.6619 26.3727 2.01825
44 1 -6.42218 -1.32077 0.553943
1552 1 -8.31285 -1.30251 12.362
1266 1 7.74208 13.0009 13.5236
1213 1 7.92965 11.8589 16.5131
513 1 21.7106 -16.8495 1.92822
406 1 9.1156 0.199374 -11.762
62 1 9.79306 -0.716782 -0.123124
870 1 -19.1406 -1.18295 14.7013
88 1 8.70326 -1.07882 -0.465981
702 1 24.9592 25.9498 2.16926
471 1 -3.26373 -1.94303 -11.9709
418 1 10.8894 14.6606 27.4164
965 1 0.269418 12.4134 0.272732
853 1 14.2108 0.749041 2.41552
111 1 1.63044 14.1736 -11.1345
1523 1 15.4695 0.953704 13.8297
1944 1 16.9025 14.6814 1.77719
713 1 15.7681 26.6231 1.94234
1154 1 2.73562 15.7983 15.7886
140 1 18.4051 28.0873 1.25686
1140 1 5.21555 0.0982757 2.73988
1526 1 -5.72198 0.537222 16.5937
1839 1 7.93866 -12.3807 15.1327
203 1 -7.62598 14.4666 15.0317
1939 1 6.61495 1.87451 12.8601
861 1 7.97881 1.83742 -11.4046
92 1 22.6599 13.8114 -10.4844
1856 1 8.80501 1.9963 15.4006
1087 1 8.74329 13.2368 13.9974
1481 1 -2.10793 15.4738 1.92553
1643 1 -1.75421 -12.3957 0.192432
1455 1 -0.357841 15.4727 1.16113
1414 1 -1.90219 13.4498 1.19718
726 1 -1.48697 15.0475 1.2317
1998 1 0.887276 2.16374 14.3401
1088 1 0.949605 13.4028 2.31397
1260 1 -0.0213267 12.7514 15.0333
1057 1 1.12735 -12.0613 16.9307
1879 1 17.5099 4.61401 15.3849
1032 1 -11.527 1.54179 3.03981
1967 1 16.968 15.6637 0.895892
1684 1 2.17199 2.75127 16.54
873 1 4.25703 16.3969 1.91399
1560 1 -7.76402 1.01665 2.46151
804 1 5.86428 3.04098 16.3472
461 1 -9.47104 14.4292 2.18486
2008 1 6.05284 2.0222 2.75485
665 1 20.6144 16.3259 29.7071
780 1 7.77234 3.04793 2.88928
1650 1 6.13589 17.1193 15.2396
982 1 9.21739 15.7649 2.65153
920 1 10.3602 3.24761 3.13843
1901 1 8.70541 16.759 29.7915
1433 1 9.56661 3.00637 15.4656
1960 1 -1.591 16.2335 1.53045
1209 1 -2.36679 3.80415 2.46935
237 1 -0.675644 1.26526 -11.577
1230 1 1.00326 16.0849 16.2893
767 1 0.696657 17.3394 4.64635
1466 1 14.1207 1.72807 15.7286
1085 1 1.1884 -10.5513 14.5928
1453 1 -12.2555 18.2347 2.69119
1749 1 14.0848 18.8166 3.15218
654 1 2.29443 32.9801 -13.0394
1889 1 2.47433 17.8925 15.0094
1361 1 1.44713 -10.0699 3.25281
1545 1 3.93961 17.4599 16.2305
1508 1 3.09092 17.4085 3.09879
1477 1 19.3862 17.7997 15.9945
1177 1 20.3141 5.38289 14.8974
607 1 33.836 4.76458 2.36374
1225 1 7.18817 17.6261 2.14671
1090 1 -7.43808 4.22113 16.837
248 1 20.1083 19.7997 0.104113
1696 1 20.5702 3.45058 3.18302
980 1 8.26479 17.7661 -11.1162
1027 1 7.39688 4.61423 3.17549
1996 1 -4.31172 17.5635 17.0161
1245 1 11.796 2.33709 13.4137
891 1 24.736 16.3958 15.7781
1410 1 9.22616 3.92863 2.32052
797 1 10.4079 3.67621 -11.7914
1281 1 -2.33033 -10.1904 1.28026
1002 1 13.3103 18.1771 15.2021
1115 1 0.368522 -10.8801 15.6278
1609 1 -0.157804 3.22381 17.7922
849 1 13.0253 -10.7095 3.1982
1077 1 14.0428 -8.7869 2.09844
771 1 15.1428 5.65585 16.5732
1356 1 14.9236 -8.63011 3.65915
1872 1 -11.4098 6.7398 2.71367
198 1 -10.446 19.1238 1.12441
1459 1 2.71454 -7.3836 29.256
1124 1 3.6709 5.71033 29.4716
531 1 4.40232 4.92053 2.55362
1328 1 5.6343 7.22455 0.899562
617 1 5.71758 6.59132 -11.724
806 1 3.98842 3.93667 3.62468
419 1 7.04788 5.63476 2.11233
714 1 -8.16153 18.6917 16.5146
1946 1 33.736 7.26899 3.18913
683 1 8.2953 5.00675 3.57504
417 1 -4.18983 20.1489 3.19756
1495 1 10.043 18.4457 -11.6653
1229 1 9.1223 4.81068 2.91885
1162 1 12.4246 5.44811 17.0571
630 1 12.2248 -9.43247 15.4241
1807 1 -1.72837 -8.99352 16.5192
1611 1 12.9922 -8.97389 16.3351
1555 1 14.2058 -9.69317 1.03951
1830 1 14.3902 -7.6052 17.3452
1491 1 14.7142 7.74015 28.5979
1228 1 0.771466 6.94252 1.86284
917 1 13.728 -6.58597 1.11303
550 1 1.91373 -6.47101 15.5241
1886 1 14.9239 20.4162 16.6835
1236 1 3.70402 20.1342 1.28495
655 1 5.31038 21.1873 -11.8127
331 1 6.79953 8.94386 -14.0297
756 1 5.97884 22.9149 0.426618
1430 1 18.3464 6.67861 -11.9712
1265 1 6.01499 21.8669 15.3079
82 1 6.56878 -6.92523 1.30931
662 1 6.24153 21.8479 27.621
712 1 9.505 5.67519 1.62879
249 1 8.76823 19.4931 2.9361
2030 1 9.24207 -6.20533 16.5438
362 1 8.48681 -7.68197 1.62688
738 1 -3.65792 -8.15578 16.9133
1331 1 -3.90844 -8.68356 5.6749
1464 1 -2.80013 7.19438 29.5624
996 1 0.277607 18.7225 14.3662
811 1 11.809 -20.0363 1.59594
539 1 11.4227 5.84114 -10.6061
1805 1 26.5903 5.51235 1.60166
1395 1 12.8269 22.65 15.2372
527 1 13.8594 -5.74037 1.98698
1320 1 0.297835 8.47681 0.940654
1462 1 0.158072 9.09668 -11.9298
1080 1 1.48649 -2.77103 15.1634
484 1 2.52085 7.99095 0.731579
350 1 30.192 -4.43226 2.76293
515 1 1.21731 -4.85085 15.2129
774 1 16.6832 -6.25995 15.3484
152 1 3.87822 8.60123 1.87187
1373 1 3.01689 -5.46279 29.9356
491 1 -8.61181 22.2928 -11.687
1031 1 -6.51277 -5.29747 -11.1316
1187 1 20.2013 -4.48737 3.36013
147 1 33.3113 10.0281 15.0144
1664 1 21.8923 22.5833 -11.6631
328 1 -5.1295 6.81659 17.1041
1098 1 7.54323 7.33304 3.18639
1569 1 9.27002 -4.1553 17.1757
1792 1 8.47737 22.795 17.8563
606 1 25.043 9.38262 1.93132
825 1 24.4478 8.76809 1.35264
1186 1 -1.85689 8.55149 1.28994
1408 1 11.2951 8.4014 15.8267
1101 1 12.2206 -4.16987 16.2048
763 1 26.0469 -7.1121 -10.8568
857 1 12.1307 -4.12128 14.5771
430 1 -0.365866 22.9276 16.3965
1369 1 0.0576413 10.169 0.281444
1311 1 16.386 -14.9433 16.7157
1307 1 1.90097 10.6494 3.29781
977 1 16.3316 11.1362 1.25252
1846 1 2.4636 9.34665 1.43026
837 1 2.50566 -1.88575 2.0705
1829 1 3.10079 -3.46998 3.04908
571 1 3.95261 8.96225 2.87409
900 1 3.83647 -3.86645 17.3468
839 1 3.3701 9.79048 15.7361
724 1 4.22915 10.1482 16.4866
217 1 18.859 23.7827 2.35183
78 1 5.61251 -2.02513 -11.4704
924 1 5.01954 -3.0124 17.0147
349 1 18.7063 -1.70849 16.7159
1174 1 7.39014 -4.12086 16.1451
2040 1 5.95409 10.8826 16.4119
741 1 8.1528 22.4611 16.7419
168 1 8.52556 -3.96409 2.63328
577 1 9.27269 22.2218 3.00853
1744 1 -3.63454 9.7851 16.1655
1605 1 11.2948 11.21 -11.7007
685 1 -1.54898 10.4169 1.66494
1581 1 13.5791 10.1297 2.42021
908 1 13.4598 9.24394 0.606514
932 1 0.848178 10.7644 2.40065
686 1 0.600024 11.3907 15.2586
221 1 14.2854 12.5513 3.47486
150 1 2.76309 11.7595 -13.5566
1013 1 16.1372 23.8665 2.22489
1136 1 4.67196 11.1339 2.32043
280 1 4.83878 13.2158 0.787225
898 1 7.51069 12.7752 18.4866
371 1 -7.29454 12.3696 3.0722
202 1 6.29201 0.106211 2.24081
578 1 7.76548 10.823 3.17958
65 1 6.91595 11.5401 16.317
760 1 9.12767 10.1781 14.7031
549 1 -6.76807 -3.49142 1.77065
1801 1 -5.09071 10.4035 3.69611
1630 1 23.0808 -3.35634 1.98349
167 1 -3.6689 9.87782 4.13368
637 1 -3.16481 -1.47077 3.85761
1566 1 13.2304 -3.6207 28.5655
1163 1 -2.73239 9.9782 -10.0661
170 1 12.2714 -2.01484 -11.9902
886 1 11.6117 10.7927 -10.1824
659 1 -0.566216 24.6476 1.8816
583 1 12.1145 -2.57473 2.56012
1514 1 13.4818 -2.36289 16.6037
436 1 -11.4145 13.6221 3.13268
933 1 0.478797 12.0487 -11.0886
302 1 1.80608 0.322756 1.57673
1718 1 30.2772 -0.011739 15.4274
1659 1 2.93419 12.2914 1.03675
652 1 5.3439 13.6887 -11.9461
679 1 6.21318 13.2284 1.19588
1521 1 5.40843 -0.049986 17.8396
1804 1 6.529 0.242861 13.866
1438 1 19.8925 27.1344 3.36675
2009 1 -9.04163 12.8932 1.76263
1301 1 8.70457 -1.16959 4.12241
236 1 9.91776 0.993827 2.43221
1544 1 9.79019 0.749261 17.243
1431 1 9.85834 11.7953 16.3625
1656 1 9.75749 -3.0501 3.06848
1825 1 -17.2652 -0.0146712 2.76606
2015 1 25.4464 13.01 2.79466
822 1 -16.3703 11.5802 3.28071
1282 1 11.0758 -13.5661 -11.3076
348 1 0.058567 13.0935 2.33758
27 1 -0.913849 -0.596603 -10.9879
1026 1 -25.5881 2.72759 3.72985
1169 1 16.3329 14.3052 2.59546
561 1 0.749261 13.4435 5.42154
1623 1 14.6942 0.165417 18.0742
494 1 3.60316 14.4713 -13.3536
39 1 3.50227 0.98393 3.08333
1482 1 -9.80685 2.0308 3.85494
737 1 -8.71506 14.3891 18.4352
1573 1 3.33767 1.84267 -8.03829
1297 1 3.78328 0.140239 5.09844
294 1 -8.83255 15.0497 16.5713
1287 1 -8.17978 0.945575 3.66809
295 1 -8.90859 13.5922 5.35366
1823 1 7.55169 28.3077 3.7329
1987 1 -7.18463 14.8475 16.9942
508 1 10.138 15.7674 15.6885
412 1 23.3927 0.483633 -9.11555
333 1 25.911 3.20441 2.24875
81 1 10.6564 0.719335 4.27961
905 1 -2.24273 -0.0612493 4.46983
921 1 11.0073 1.58908 3.92706
133 1 -2.86957 14.4221 3.20573
1335 1 11.2331 0.606821 15.0998
759 1 -1.94576 14.0024 17.1754
1193 1 12.3447 15.7757 16.4686
1334 1 11.9436 1.05575 16.3297
313 1 27.7516 14.3388 3.40324
346 1 -0.834688 -13.0878 -10.7034
899 1 -0.26831 13.743 32.012
1237 1 15.509 28.8638 4.60979
651 1 3.17325 15.6843 -10.4508
358 1 1.62623 2.50066 18.5561
602 1 3.1814 3.02331 3.83271
1631 1 17.4631 1.82728 -11.2773
453 1 -9.68158 16.5173 3.16263
446 1 18.6925 3.28533 -10.6676
1678 1 -9.06325 3.1723 4.23582
1663 1 18.571 2.23727 -10.0244
668 1 6.80224 15.5453 4.32868
754 1 19.6279 17.3899 -8.98425
262 1 7.34008 1.97459 -10.4311
1813 1 -5.6621 1.67088 4.2368
1858 1 8.52011 2.80165 4.25002
565 1 10.1869 15.7248 3.10963
574 1 8.68326 0.994318 3.76679
1489 1 23.0312 2.86424 3.66474
880 1 9.49979 15.6126 -9.68191
242 1 9.77292 2.6709 -8.91419
1871 1 -3.17793 -10.8444 17.706
1597 1 10.8592 1.28819 2.34822
352 1 24.9755 2.04748 -10.6328
1461 1 1.66933 0.824121 17.4486
216 1 12.9579 15.5763 3.71587
1733 1 0.193436 29.679 3.38603
1542 1 0.478804 4.38413 3.95968
1454 1 14.0312 16.9563 16.9784
53 1 27.2765 4.24128 18.617
974 1 0.68153 16.3401 4.45557
557 1 16.0036 4.16459 -11.0356
478 1 15.6336 17.2449 4.21375
979 1 15.3615 17.4645 19.0063
1244 1 1.04792 16.7957 5.59337
912 1 2.52585 18.62 -10.3527
1056 1 3.04649 4.09429 17.6709
1814 1 2.40948 18.0656 18.5394
1144 1 3.65938 -10.2001 4.62636
1104 1 19.4316 3.30235 -9.99042
1181 1 5.04211 4.28299 17.8116
433 1 -7.74621 15.8127 3.70431
790 1 6.82977 4.17547 -9.66546
1729 1 6.66775 16.1359 32.4665
400 1 -5.27715 15.9251 17.0476
612 1 -6.04528 4.31327 5.08135
911 1 8.90699 3.73368 18.2133
1890 1 8.41742 -10.2258 3.46186
690 1 9.42725 4.56992 -8.85867
1767 1 9.8222 18.4711 17.5593
34 1 -5.80678 16.9497 4.94456
729 1 12.3766 3.83011 16.8326
1157 1 12.0655 2.52349 5.22558
1153 1 13.5036 -12.2284 2.97628
160 1 12.3663 3.38605 4.0869
241 1 0.594388 6.04245 2.48793
1141 1 14.063 18.7946 4.68287
815 1 0.0321817 3.8271 5.99147
1828 1 2.5524 18.7807 1.90456
997 1 1.85444 33.5628 3.82967
1452 1 15.3552 6.00356 5.81764
394 1 1.37789 4.53749 4.57713
722 1 16.6348 19.5935 17.4667
1149 1 1.81955 5.03368 5.39923
1051 1 29.451 5.2309 4.35223
1066 1 18.4285 -8.3176 3.44496
1089 1 5.97327 4.94393 17.5499
1626 1 18.4602 -21.419 16.1347
1543 1 -9.22741 -8.49376 4.63732
1756 1 19.4058 19.7498 3.49964
739 1 7.18267 32.6017 4.09712
1810 1 7.77467 4.11638 17.7093
1698 1 -4.50514 5.46691 17.6736
1127 1 -7.12416 6.45485 2.5374
896 1 10.6466 4.55975 16.6852
1971 1 8.33567 5.00982 -9.00567
15 1 10.8026 -7.15774 17.6519
428 1 -3.02393 18.7576 4.51492
444 1 -14.1136 -7.73681 2.96933
299 1 12.0329 4.5576 -23.5109
1969 1 13.0091 17.8768 17.5818
2010 1 13.2475 18.8706 3.97768
405 1 -2.21726 16.9652 -10.3555
1093 1 15.2629 -6.18838 17.3755
426 1 2.82108 19.4562 2.80489
1703 1 -10.4128 -6.80495 2.61526
1904 1 2.74546 20.7337 17.2294
1669 1 -9.86365 5.8256 3.09538
777 1 4.49997 -5.74913 2.53779
3 1 4.23335 -6.6602 2.94869
403 1 5.31587 20.5239 2.91576
1360 1 5.59631 -4.62297 3.86709
309 1 7.74164 -7.28044 2.42353
1537 1 18.2311 -7.336 17.4495
1816 1 20.6007 6.43408 3.5923
1168 1 6.50132 5.39771 3.18806
1988 1 9.25132 7.56746 18.4543
101 1 10.4643 7.15318 -8.84256
1344 1 23.5098 -5.95353 3.80623
1850 1 11.9035 -7.12696 17.8012
1701 1 -2.14583 20.6728 3.2965
332 1 -0.347948 6.4186 2.01362
1981 1 12.7018 7.39796 15.9113
582 1 -14.2547 7.16269 -10.4017
682 1 0.0106178 8.27247 2.97212
1403 1 1.69793 9.46768 2.67381
1315 1 -12.5682 8.23385 2.79883
1719 1 12.3357 9.72751 -10.1459
827 1 14.2283 -4.6014 17.3076
1145 1 15.9343 8.3429 1.71284
1706 1 -11.0894 7.19663 4.53127
48 1 2.17377 7.79368 2.82491
1203 1 1.76454 8.80145 3.37282
1005 1 5.84454 8.14465 16.3146
1139 1 3.7513 -4.95303 4.03256
950 1 2.90186 9.44469 -9.94011
325 1 6.50919 -4.12739 4.30556
695 1 20.5285 7.45043 2.13165
576 1 5.03503 -4.49179 2.92385
1078 1 19.0972 23.7247 4.27866
1202 1 19.7679 9.61609 16.2464
1525 1 7.11995 7.66343 4.06267
1888 1 6.2275 8.07751 4.10128
1232 1 7.06425 20.3476 18.47
442 1 36.4314 -7.06191 -9.24778
931 1 10.1039 21.8759 1.94476
1968 1 -4.43897 22.2484 17.7215
1058 1 8.65098 7.76816 17.4559
438 1 24.7802 10.9452 4.84088
1787 1 11.9471 8.52956 4.4557
1520 1 -3.44896 7.80289 16.5414
1916 1 0.724484 -4.1933 16.2862
10 1 13.4536 9.89022 -10.0613
454 1 0.706067 24.0082 3.31307
84 1 15.466 -3.96531 3.70503
866 1 -10.8293 -3.02881 3.98054
415 1 30.1659 11.172 2.98658
1105 1 2.15336 -4.88066 -9.27374
1386 1 4.10699 -4.05663 18.6492
742 1 2.46366 9.98045 -8.8984
1363 1 -10.5982 -5.5334 4.75014
310 1 4.44926 11.6475 3.96465
1997 1 -9.31912 10.4785 17.955
1223 1 6.08575 -3.3567 3.52606
1724 1 19.6931 25.2654 17.4161
1975 1 21.0871 23.7893 4.7177
1023 1 20.2057 22.5977 -8.51896
2027 1 7.75218 -4.6028 5.28896
1645 1 -6.83852 -3.29258 -10.8718
2021 1 -15.9342 9.10874 17.1423
2035 1 -3.45809 8.80563 3.89037
1159 1 -5.41575 -19.0603 4.83728
1006 1 -5.17389 23.7138 18.3273
1167 1 -14.6439 -3.0959 3.28817
1365 1 13.0706 10.6331 4.28873
397 1 10.697 9.05672 16.4589
1866 1 12.7197 -17.9654 18.1694
993 1 0.724162 10.9913 -8.63222
711 1 1.25634 10.502 4.24355
1771 1 15.9071 12.5432 -9.71052
1129 1 14.6944 -1.86406 -9.59115
334 1 1.93881 11.6994 3.04343
1559 1 2.00169 -2.342 17.7223
838 1 2.74276 -3.35798 -7.62688
753 1 4.24837 25.6763 2.44888
1589 1 3.74399 0.0427851 2.83107
1905 1 31.9318 12.8897 16.6966
1113 1 5.52872 26.3137 17.4265
1679 1 20.6733 11.4991 17.3946
1776 1 20.8492 12.7207 31.1567
1142 1 -6.26209 -3.81182 3.52775
20 1 6.69767 -1.74391 4.82208
89 1 6.46741 -0.271318 4.48099
468 1 8.59609 11.4863 -9.96651
74 1 -5.91449 11.145 18.1469
1290 1 -6.64553 -1.73163 6.13083
1152 1 9.57009 11.7824 17.6627
392 1 -3.5139 10.5543 5.08373
1809 1 8.80191 -15.5159 4.84234
1312 1 12.9539 12.2206 18.256
1712 1 -2.34149 11.6853 4.17489
240 1 14.6468 11.3828 16.8328
1436 1 27.6629 10.9924 31.3391
1242 1 12.6278 -2.19641 17.424
784 1 13.1764 -1.6091 -11.6678
1770 1 13.702 -0.251973 17.0954
1861 1 13.8167 11.6718 18.4712
231 1 1.21443 27.1942 17.024
635 1 28.8132 -1.11209 2.82109
1646 1 2.09531 -13.8261 -9.53511
1283 1 16.4734 0.626228 4.15413
1722 1 28.8785 11.8904 5.22977
828 1 4.49531 14.2238 3.51975
153 1 3.01715 13.2535 -8.94885
1652 1 -12.3716 -0.961769 4.68196
935 1 15.1692 11.971 1.99397
859 1 17.591 0.0588856 15.2835
58 1 16.8468 -0.456098 -10.0843
1638 1 6.40179 14.4522 18.1263
661 1 4.87527 25.6395 4.81188
516 1 19.3534 -12.2008 -9.12035
98 1 -6.53284 0.109766 3.69635
1125 1 6.72864 -0.86147 19.2057
1240 1 8.39506 0.187611 18.1753
18 1 -6.33685 13.8407 -8.87788
1198 1 8.64016 24.6656 2.70294
1305 1 -4.18349 -1.03234 3.42253
1234 1 -5.68534 13.2478 5.63682
875 1 10.5731 -0.222425 17.4597
1708 1 -4.80619 11.9727 2.49136
929 1 -3.05424 -0.886442 2.87225
488 1 -3.51799 11.6847 4.81401
1648 1 12.149 -1.56923 16.7535
1584 1 13.2845 12.2576 3.1094
1911 1 25.9451 0.523383 15.5384
1606 1 -0.94794 13.1388 17.4707
252 1 13.8387 12.8936 4.36464
122 1 14.3221 14.43 -8.41474
183 1 0.709691 -0.328328 6.50331
1496 1 14.6145 0.653212 19.953
1210 1 16.4166 14.6677 5.22545
1783 1 15.6076 1.64354 20.2993
1826 1 1.76271 14.7544 19.4238
991 1 17.0969 14.5215 -7.52143
2020 1 4.12917 15.3708 20.9798
664 1 5.63485 27.6082 -8.27104
2028 1 5.06616 15.2196 5.40276
466 1 8.97047 1.26409 6.10934
532 1 21.7692 -0.390909 3.7157
1769 1 7.37222 28.5316 18.8501
174 1 8.48069 14.8638 18.7199
868 1 -5.7043 1.6107 19.635
620 1 9.26311 0.473025 19.2658
618 1 11.5338 14.7293 4.73917
1103 1 24.3214 0.539756 5.41098
1974 1 25.6515 1.28803 17.3634
45 1 12.3409 14.1225 -9.35481
826 1 12.2774 0.380313 5.39557
1445 1 -0.498786 14.6271 18.9275
379 1 -1.19539 13.2289 4.7594
243 1 -0.205213 -0.000538037 -7.85704
1099 1 15.3838 -13.455 5.25529
1753 1 0.119216 15.6887 5.33167
2026 1 2.22229 4.2059 19.9035
1220 1 14.7345 29.3257 19.5303
736 1 2.22893 15.701 -8.06377
102 1 4.80331 17.032 -8.32081
134 1 2.62244 15.9652 -9.43218
1562 1 16.7251 -11.8665 20.2348
1912 1 2.62333 2.88363 18.8669
615 1 4.42999 2.44178 5.2884
595 1 33.4116 2.0416 19.9218
1284 1 -7.42216 1.08258 6.46647
1540 1 -7.74016 3.05106 19.2384
1441 1 -6.78448 -10.7282 -7.6809
1070 1 5.27457 -10.9897 19.9633
1764 1 -5.99411 15.9524 -8.481
680 1 -4.93035 2.90567 5.28639
1296 1 9.68906 3.74834 19.0494
882 1 23.2404 2.38097 5.7832
387 1 -2.94211 2.90555 5.55491
1507 1 -0.47408 14.6634 17.7183
1362 1 10.6157 2.15522 4.78733
503 1 -1.1369 15.1757 4.69448
1416 1 11.3633 1.78934 5.49213
1741 1 0.324778 1.51823 17.991
761 1 12.3409 1.39047 5.73265
1486 1 13.6757 16.7333 18.8497
1345 1 2.15215 -10.4444 19.808
569 1 16.6746 3.7361 5.58242
735 1 3.4695 2.82585 5.806
1550 1 17.224 2.46483 4.74225
128 1 19.0309 2.53662 4.70362
1686 1 19.4626 4.7439 4.8795
1530 1 7.47209 30.1929 4.09858
477 1 34.1211 18.3077 19.0888
1504 1 20.5179 3.56072 5.16801
1042 1 8.72521 -8.63772 5.82755
486 1 8.35089 17.5349 5.64451
1371 1 -4.42565 -9.42989 -7.41998
206 1 -5.71135 16.379 6.05306
1692 1 24.1997 17.4111 18.4354
986 1 10.2506 4.39233 20.418
514 1 -3.51019 3.37129 -7.13106
235 1 -0.735259 16.1115 -9.00262
2001 1 -1.80029 -10.0061 5.67754
1848 1 11.0174 17.7646 3.90642
718 1 -0.785816 16.3718 19.5309
634 1 12.6886 3.64438 -8.59617
1379 1 -1.24433 4.58193 5.67435
259 1 -12.1623 32.4569 -7.33119
955 1 0.750897 4.46385 -8.21543
265 1 -10.6735 6.32806 6.49733
376 1 14.9324 5.6583 18.6674
483 1 2.25015 6.15294 4.87308
1877 1 3.13753 18.7226 18.2196
854 1 3.52615 -6.74101 4.21307
1790 1 3.75016 4.41024 5.05648
633 1 18.5696 18.3032 -8.00847
1106 1 -9.80655 5.97697 4.37433
440 1 19.7816 5.41738 5.59237
1918 1 6.68083 5.08359 6.36186
976 1 -7.28235 5.68902 -9.16156
425 1 9.95905 6.12377 -9.18768
609 1 7.56863 -8.0734 -8.36823
502 1 20.7371 19.7908 6.02526
876 1 10.4999 33.4239 6.51887
1734 1 9.12843 19.4091 5.13785
459 1 11.4366 4.27419 18.5181
1304 1 11.1458 -7.67178 4.83448
883 1 11.8678 5.42461 5.3577
47 1 -0.255333 -8.71729 -7.86294
1068 1 14.2265 -8.78285 6.62926
1392 1 12.8676 5.3602 18.7052
1385 1 1.25254 6.72794 -9.3369
693 1 0.43505 -6.44215 -9.72654
647 1 -14.2089 -6.52281 4.42886
100 1 0.374573 7.30078 -10.9315
311 1 15.4272 7.01097 -7.25314
1884 1 14.2556 21.2522 18.7575
1704 1 2.49233 -6.63266 19.352
1205 1 3.17993 20.0066 18.9919
1348 1 3.49835 -6.22051 5.32645
700 1 18.1647 6.76516 4.86336
560 1 4.18614 21.3769 17.8566
300 1 -8.34211 5.83042 -9.16162
155 1 21.6172 6.08598 -9.31658
1915 1 19.1382 7.57619 3.55705
1720 1 8.3288 6.56756 5.66807
844 1 5.99395 -6.83124 4.16839
972 1 -17.9325 19.5259 6.24028
623 1 20.5081 -7.21378 7.29877
211 1 -3.98602 6.77867 -8.31298
16 1 10.9342 8.00118 17.7136
1487 1 -2.19789 7.11417 18.5673
1473 1 25.1932 30.6276 4.71179
1716 1 12.993 -7.49358 4.07682
648 1 12.1085 -5.51354 2.8094
1444 1 -0.661133 21.9869 18.5884
1625 1 -1.61104 5.44362 4.39096
1170 1 13.9913 6.34182 4.62483
127 1 14.6254 21.9898 -9.30167
831 1 13.6056 -5.37652 4.06739
776 1 1.03495 9.47908 18.102
1465 1 13.6246 -5.29315 5.77972
1730 1 1.12525 -4.94019 19.2011
1034 1 -12.4649 -5.92068 19.7168
1838 1 3.58466 7.66966 -10.3475
1158 1 30.092 8.26499 3.57622
1293 1 18.9223 21.3299 4.58285
1736 1 4.59414 22.0217 17.1608
192 1 19.2924 8.84657 -7.65665
368 1 5.78274 8.30938 4.95675
1694 1 7.434 -4.87254 17.9607
1649 1 20.5046 7.36761 34.2429
1914 1 20.0787 7.51849 5.31663
490 1 -5.74608 21.6373 -20.626
1128 1 8.25822 -5.86519 19.4405
975 1 8.08376 7.17878 18.3531
1863 1 22.5916 7.69564 34.0761
1126 1 -2.65258 8.06245 18.8451
1073 1 10.1113 8.37133 -7.67302
472 1 9.05209 9.07586 5.12613
1007 1 -3.60224 8.26994 -8.75166
177 1 -2.88543 -6.36601 5.81721
1959 1 -2.61716 22.8241 4.83152
1359 1 -1.43861 7.68162 17.6608
1422 1 -1.66498 9.20302 18.9137
37 1 -0.963125 8.77977 -10.0566
1192 1 26.0533 9.99774 20.4656
1785 1 15.6514 9.43851 19.2186
1072 1 -1.36895 -5.67507 6.9384
1233 1 16.4906 -2.58142 -8.30784
768 1 1.65755 10.2222 6.27547
1156 1 -9.85025 20.4116 -7.71452
1475 1 -8.65771 10.1014 18.8455
1583 1 -7.06774 24.2701 18.0443
470 1 5.34806 -2.60897 -9.43579
1773 1 4.57561 -5.09315 4.67125
1928 1 -5.64039 12.1659 6.4645
354 1 -6.89334 10.1737 19.266
1406 1 33.972 11.3582 6.94767
1662 1 6.27382 11.1873 5.99367
554 1 20.9379 -5.64432 5.19779
1885 1 6.48967 8.29011 6.09709
916 1 -6.24165 23.7863 6.63918
1409 1 -4.16576 9.40374 19.7292
1851 1 -5.03397 -4.88929 6.50492
258 1 10.0201 9.4005 -8.53767
401 1 13.9189 23.7688 4.57708
721 1 11.6745 23.6139 18.1313
814 1 -0.942953 -3.54483 -19.5232
1376 1 -2.41919 -3.56939 5.63734
1306 1 0.306745 9.84429 19.2541
117 1 0.0429303 -4.60505 -8.84715
1434 1 17.1163 -3.20128 4.96744
277 1 2.48891 12.9807 6.46115
684 1 15.908 25.6589 6.14202
1608 1 -11.033 -1.67841 18.4137
318 1 19.0464 -2.66071 -8.40552
507 1 3.79568 12.2949 3.48963
340 1 5.80978 12.3149 5.86628
951 1 -7.14554 12.5274 20.7954
1043 1 -4.92233 -1.00283 5.85157
260 1 -5.83283 -1.69163 5.39533
320 1 -6.09086 10.9786 5.48583
306 1 8.59534 -2.78 5.29427
382 1 9.3578 -2.80755 4.44046
1257 1 25.8837 24.2762 18.7214
751 1 9.5152 12.2921 5.33705
64 1 22.803 11.5991 -7.66069
1357 1 -3.35819 13.0881 5.32719
40 1 -2.61433 24.6061 -7.20114
1570 1 -2.85235 12.4154 6.06373
1259 1 -1.62793 11.7229 4.94198
399 1 -14.3477 11.125 -8.30784
370 1 13.0505 23.9873 5.90242
1977 1 2.25794 12.8041 32.765
2007 1 -9.80322 13.5143 19.9704
807 1 15.2893 10.5642 19.0364
1774 1 4.14513 28.8142 18.4009
1591 1 3.56002 -1.4033 5.91501
1171 1 18.0035 -0.878858 5.28523
114 1 4.31821 15.4693 -7.51837
657 1 -5.58241 14.3612 5.8389
1503 1 32.8713 12.9161 18.4562
885 1 4.45543 13.2463 4.15129
1086 1 6.74114 0.41958 5.784
363 1 8.77576 0.0882538 6.39658
1601 1 -3.7985 -0.870559 4.33951
575 1 11.4695 -1.06344 17.3879
1784 1 10.9963 26.071 4.92216
1687 1 -0.95305 12.1015 33.0683
1522 1 11.761 26.3257 5.52141
823 1 -0.226912 12.7882 5.3557
383 1 13.9333 2.72966 6.1932
1637 1 2.26051 14.6308 7.45449
184 1 3.31537 14.7503 7.2572
1012 1 2.86315 13.7669 5.76719
2048 1 4.71051 16.2885 21.8128
1651 1 5.26139 0.165052 22.1723
28 1 4.95469 13.8414 6.32353
1448 1 17.3069 -0.659045 7.49829
830 1 4.28022 1.56002 8.34918
1681 1 -22.7509 13.484 7.24831
103 1 -21.1411 -14.4693 -5.30745
224 1 6.96138 15.6004 5.90524
762 1 19.9361 28.6998 -8.23568
1472 1 5.24974 1.31748 6.39626
969 1 -4.03711 15.2108 5.13488
41 1 -4.11101 -12.422 7.0562
869 1 -6.38155 -13.0518 20.4558
985 1 22.1014 0.470584 8.75971
1973 1 10.0794 13.9172 19.9571
256 1 10.4853 28.8524 -7.90267
1936 1 -3.12862 1.19233 20.6648
586 1 11.2872 13.4571 -7.73365
1241 1 26.3181 13.0966 19.6307
413 1 25.0351 1.08682 6.24961
1122 1 11.3786 0.719731 21.0884
1483 1 -0.855433 28.1357 33.6017
942 1 12.2472 1.56561 6.80142
1506 1 0.145059 14.9514 20.0012
1510 1 13.6789 14.4429 7.42383
573 1 28.1429 -11.1097 7.45841
538 1 1.41818 30.0031 -7.03514
833 1 2.4006 2.50811 -6.93261
689 1 1.05449 15.0764 7.04109
1538 1 3.14317 15.9976 21.2784
120 1 16.8714 3.30047 -6.96448
821 1 3.09746 13.8678 6.84302
1869 1 5.15447 29.4182 21.0975
1349 1 -9.37871 2.8565 20.4769
1849 1 6.12301 2.55692 7.53353
1942 1 6.01036 15.2366 7.42392
802 1 5.36278 30.8871 22.3418
749 1 6.31682 3.3271 6.80893
124 1 7.20529 2.78707 -6.51129
1164 1 6.90794 1.76654 6.87583
1480 1 -5.76872 29.3683 20.7622
1557 1 -4.96414 -10.9957 7.54912
879 1 8.19753 3.5224 7.17131
1427 1 -3.5 1.15738 7.9449
1094 1 9.79024 16.0197 7.23595
707 1 10.8351 4.04325 -7.81903