ITEM: TIMESTEP
55000
ITEM: NUMBER OF ATOMS
2048
ITEM: BOX BOUNDS pp pp pp
0.0000000000000000e+00 1.3679807573413575e+01
0.0000000000000000e+00 1.3679807573413575e+01
0.0000000000000000e+00 1.3679807573413575e+01
ITEM: ATOMS id type xu yu zu
931 1 -0.136758 13.5661 1.13663
1530 1 13.1708 15.6407 0.333016
774 1 13.8188 -12.9123 15.3116
394 1 2.42933 14.672 -0.0637589
136 1 5.0647 15.3719 0.00801618
758 1 18.3341 15.1061 1.12284
1758 1 17.3299 14.517 1.26401
730 1 18.5326 13.9892 0.889143
20 1 7.37159 1.80498 0.648641
218 1 6.27597 15.376 0.672954
1961 1 8.04916 0.0650035 15.0671
430 1 -4.11231 15.3867 2.08392
1321 1 -6.12964 1.01574 14.8856
1281 1 -5.01481 1.45804 1.17924
1483 1 -3.87544 13.6569 15.3577
464 1 -2.94151 14.8352 3.27956
512 1 10.7483 13.2466 0.439553
270 1 12.4734 -0.22964 1.37551
399 1 -3.21309 1.56226 0.3489
943 1 -2.63175 14.0778 0.0149372
598 1 13.8001 0.188142 -0.223437
341 1 -1.49797 1.89821 -12.9236
1556 1 14.3296 1.69562 12.7843
733 1 14.8634 14.7803 1.35035
1947 1 12.8586 1.67458 15.3308
457 1 2.8259 15.5692 -0.619761
1907 1 15.404 15.5667 -0.424247
38 1 3.71209 2.9189 -0.685319
753 1 2.16098 15.8257 -1.47461
1850 1 19.341 1.51814 15.4741
1362 1 3.64837 1.91873 1.08983
770 1 5.28304 1.11557 12.6854
619 1 5.05021 12.8416 0.696647
1644 1 7.09245 2.67093 12.2242
928 1 5.33266 2.3412 14.5227
1806 1 8.997 1.00826 0.124604
1438 1 22.3212 16.2006 0.28384
1318 1 6.65012 2.59216 0.28602
1862 1 9.85786 14.6011 14.7893
265 1 -3.47893 3.3552 2.18746
568 1 9.39187 2.56417 1.41146
828 1 10.6716 2.68263 3.03283
1176 1 10.7617 0.631549 14.8122
219 1 11.2066 17.2901 0.260308
1645 1 -2.57421 3.55928 2.83681
609 1 -1.76529 0.725854 1.16104
1548 1 -1.51462 -10.8904 13.8255
221 1 11.1232 16.6875 1.93156
1373 1 13.0898 0.594188 14.2591
29 1 14.1778 4.22012 1.0721
456 1 0.183692 15.0894 0.861899
992 1 13.9452 16.3021 14.9097
1385 1 3.31383 2.55229 0.345764
466 1 3.41264 4.76629 -0.91929
132 1 3.83148 17.5 0.582807
703 1 17.0939 -10.838 1.38574
115 1 3.16989 3.8349 -0.914366
1996 1 4.98484 17.7903 14.1213
1051 1 20.7672 3.31745 13.3106
295 1 -7.50802 3.79162 -0.265754
1704 1 7.74772 2.47916 13.3911
1352 1 -5.49153 4.2157 0.842761
1169 1 7.83387 17.9656 -0.224385
1316 1 -7.67417 4.5986 14.4271
480 1 8.50205 18.9488 0.13672
302 1 -5.56916 3.51288 -0.911654
924 1 8.00696 3.38873 0.383466
894 1 9.57241 2.89483 14.1254
465 1 10.2932 16.8271 1.08468
459 1 -4.40271 4.85946 0.769254
1030 1 10.9743 -9.62282 1.3956
112 1 10.1192 5.9516 1.76825
91 1 12.6837 3.23527 -0.640425
1025 1 -1.79858 5.98757 1.13008
1090 1 -1.78447 4.81844 0.516491
1783 1 11.9999 3.51715 14.9734
574 1 13.2036 3.61729 1.03348
1762 1 -0.333038 16.7548 0.162071
1832 1 1.15141 6.06971 29.8309
1875 1 15.2521 6.5858 1.58919
1877 1 0.931135 6.70125 16.9945
1957 1 1.77152 4.9805 0.57891
699 1 14.0775 6.54518 1.04373
2036 1 2.56426 4.83763 13.3998
1599 1 15.1896 3.98108 14.2255
603 1 16.8075 3.90496 1.56518
749 1 4.82601 5.10735 0.765027
1461 1 5.67085 6.38003 14.6769
514 1 2.82538 7.12668 0.839687
1401 1 17.1571 5.58427 14.3239
1024 1 5.29144 17.0667 1.15651
1433 1 5.58364 -8.2703 15.0446
1320 1 6.82628 6.74828 1.98304
592 1 -5.59693 6.17755 1.17287
1507 1 -6.62526 17.965 14.5222
772 1 -6.27978 5.24381 14.1022
1813 1 -4.41969 5.8285 14.7689
1207 1 10.5314 7.04627 15.3094
1402 1 22.5469 6.04054 15.7423
415 1 9.88507 19.7602 13.9233
1099 1 11.0139 5.23073 1.57281
523 1 10.4403 5.20498 14.1591
867 1 0.951801 5.33226 1.29375
254 1 14.2979 3.56101 0.335329
599 1 13.8902 5.47578 0.699804
976 1 0.778398 7.59305 1.13085
1412 1 2.76911 6.84469 15.8395
300 1 2.73727 6.07635 1.45905
1060 1 -9.09585 7.11848 13.317
157 1 15.6925 7.65044 1.56753
1393 1 4.62432 7.69168 0.917129
1496 1 4.94019 6.1342 15.3098
1399 1 19.1911 6.48583 13.5206
336 1 5.76708 7.93641 14.1108
2040 1 6.88254 7.79422 14.1292
413 1 8.04487 7.29597 0.744541
1098 1 7.26377 7.48402 1.38124
1381 1 -4.18349 6.76222 15.2231
280 1 8.33615 6.73274 -0.526077
1852 1 7.7752 7.69507 16.0469
1693 1 22.3304 7.76878 13.4751
1595 1 -3.03892 7.72724 13.4624
785 1 10.0293 -6.54789 0.51025
448 1 10.7464 6.34499 0.834343
383 1 12.7874 5.56185 14.3297
1831 1 12.9763 -7.12758 14.8157
1505 1 -1.93425 21.5612 0.250074
1358 1 -0.614338 6.39489 0.103387
1696 1 13.2541 8.53465 14.2615
301 1 12.173 6.83687 14.2798
1751 1 14.0042 23.3172 14.2821
129 1 0.775859 9.04693 -0.815082
1885 1 14.0838 8.71454 14.7288
433 1 1.37794 9.70172 0.584247
1247 1 16.2904 9.02476 15.4189
1033 1 3.27247 7.6333 1.75361
1580 1 19.5511 -4.59168 13.8394
914 1 3.64692 -3.70613 1.07717
577 1 5.23959 8.69285 0.981224
921 1 8.55948 8.11635 1.51082
698 1 20.0488 22.1755 1.05058
870 1 -7.72853 -5.61299 17.2641
402 1 9.79607 8.11366 1.63984
789 1 8.40448 -6.62581 15.4322
1440 1 24.0458 9.17978 2.11593
1092 1 -3.52469 -4.07023 13.3185
230 1 -4.02446 7.37672 2.23826
955 1 -2.89059 8.51201 0.640084
855 1 10.3587 -5.0077 12.9483
1209 1 13.6538 7.2499 -1.9617
507 1 12.0512 8.87087 14.2488
1271 1 12.7762 7.49487 13.676
1895 1 0.792501 -3.69597 -0.299194
1503 1 27.4113 11.4459 13.9364
1423 1 -1.2655 9.81479 14.0726
438 1 15.5152 10.4043 0.00251869
520 1 2.42144 -3.75994 0.88563
1797 1 15.3422 -2.88979 14.7599
86 1 30.1208 -2.5139 1.20082
837 1 3.42234 -5.51788 1.00721
537 1 16.8803 -1.90229 14.0519
533 1 4.84762 -5.44809 2.07785
375 1 18.6603 9.66389 0.814246
631 1 5.3642 10.8707 -0.0577503
1153 1 5.96152 -4.05297 1.20745
1860 1 6.77218 10.857 14.8733
172 1 6.79843 10.1931 1.96975
1439 1 21.208 8.78614 15.0685
422 1 6.82533 9.16059 0.41097
1293 1 7.63642 9.71867 1.41172
1680 1 -6.16946 10.5046 14.3177
510 1 9.16903 9.25763 2.64334
999 1 8.52297 9.18714 1.81616
1168 1 8.82167 9.61157 0.966178
1000 1 -4.18707 22.4186 14.6014
1710 1 11.3606 -4.52346 13.5949
1504 1 11.339 9.6588 0.871997
1071 1 24.6394 -3.62135 13.5128
435 1 -1.75317 9.81652 -0.679026
975 1 12.4059 8.61626 13.3458
176 1 -0.930712 11.0529 0.518452
353 1 -0.34629 10.267 -0.0336169
4 1 -12.4737 11.1892 0.252635
325 1 0.669428 -0.650838 0.678483
808 1 2.33814 -1.41938 -0.216094
517 1 1.34878 -2.64213 2.2798
1147 1 4.11357 12.202 14.3079
675 1 3.46526 12.274 1.40149
400 1 5.18625 11.7632 1.18738
1475 1 4.02352 8.83649 1.50124
1919 1 8.1416 -3.34603 12.7711
198 1 -6.22515 11.8098 0.773821
1336 1 6.19082 -2.15957 13.0294
1523 1 8.34115 11.0333 14.6215
1295 1 11.7184 -3.63552 11.9345
344 1 8.89132 -3.03624 -0.186596
696 1 8.76595 -3.87359 -1.60713
650 1 -1.35012 10.3232 1.2081
297 1 10.1425 -4.25545 0.693737
1883 1 11.7963 11.7269 13.6536
1279 1 -0.270697 24.4107 1.19965
553 1 0.615438 0.494124 14.3154
1053 1 13.9504 -14.5716 -0.284429
1839 1 2.39544 -0.717022 14.5747
148 1 2.67606 14.0565 0.879257
131 1 2.40742 -0.416289 -0.226862
1418 1 3.46751 12.9987 14.2841
1199 1 17.0631 0.213993 0.0814867
880 1 17.9922 14.5307 -0.546278
549 1 -9.57168 -0.119128 1.32684
1450 1 4.32437 12.6642 12.4039
1038 1 4.35829 -0.465475 -0.0670654
351 1 7.70053 -0.971949 1.13757
1478 1 5.1566 13.5181 15.3401
531 1 6.09853 -1.95375 0.894789
2022 1 8.4438 12.3507 14.1144
1912 1 8.90675 0.375316 14.6751
982 1 7.00425 12.1411 -0.660775
715 1 7.89631 12.7617 -0.494332
1324 1 -5.66505 0.597157 0.35738
1411 1 -3.6595 -0.937224 14.9635
954 1 10.1708 11.1299 1.94771
272 1 -4.14974 -0.904956 0.295794
1338 1 10.2159 -2.07847 1.0028
440 1 11.1169 12.1845 0.872546
441 1 11.4661 13.0788 1.43695
646 1 -0.714526 -0.526638 13.8933
268 1 13.1172 -1.0315 1.69051
534 1 -1.25473 -1.3263 0.759644
2024 1 0.506469 12.6082 15.2565
1959 1 -1.34794 16.1883 3.74944
1077 1 15.5183 1.46102 0.605272
2032 1 14.6553 14.4099 2.26217
518 1 2.61531 1.32794 1.27834
1799 1 2.11179 0.410895 15.8516
864 1 15.9759 -0.62586 2.12446
1297 1 17.9173 0.648587 15.7323
13 1 3.11449 0.15765 1.78665
496 1 -8.82417 13.3877 16.286
815 1 5.5821 1.01437 0.916964
1769 1 4.42791 27.4584 17.4857
1332 1 6.61128 1.01657 15.2795
1236 1 6.04163 13.899 1.80938
1286 1 8.45445 -11.4351 15.5692
1525 1 8.96567 14.1234 16.8823
479 1 9.10874 13.4554 2.47018
93 1 22.5737 14.4066 1.98409
417 1 -2.37618 15.2474 1.29707
1925 1 -2.37776 14.0435 2.95144
586 1 10.7953 13.441 2.08141
1132 1 0.779858 13.6526 1.57419
412 1 13.656 1.17459 2.63417
1354 1 12.8505 0.681133 1.78054
155 1 13.8366 15.6697 2.05729
426 1 1.85307 15.162 2.00575
1934 1 1.42403 2.2472 1.24233
1396 1 2.4423 15.9157 14.5717
613 1 4.47624 2.60329 1.5787
1545 1 4.76879 15.3907 2.44049
1923 1 4.21965 1.05216 3.16693
350 1 19.0195 0.767254 2.33643
803 1 5.78466 1.92296 2.81576
1436 1 6.38533 17.232 14.7458
926 1 20.1721 15.8455 1.53425
513 1 7.73771 -12.3985 2.31775
1730 1 6.82357 1.48275 16.3183
1979 1 -5.70998 0.367856 16.1519
1737 1 -3.01326 4.56313 16.002
892 1 9.35495 2.72032 16.2078
181 1 7.30806 15.9295 2.31905
692 1 10.4552 2.02871 3.9311
1255 1 -0.794889 2.64554 14.8005
582 1 -1.53781 2.58249 1.82162
1607 1 1.22492 4.40453 29.4849
370 1 15.3124 2.93942 0.107932
2020 1 1.20339 16.4088 15.7831
1268 1 13.1507 4.63105 1.41587
460 1 4.02736 2.52377 2.53165
1508 1 2.64496 3.32845 0.481399
939 1 2.14574 16.8481 2.76224
1066 1 5.72773 3.9567 3.08405
204 1 -7.75287 18.4461 3.80427
674 1 6.90004 16.354 3.46985
261 1 6.13171 3.32741 2.15401
437 1 5.46353 2.55981 1.961
442 1 22.2538 3.26726 1.80306
1430 1 20.51 18.2573 2.63164
1392 1 7.21041 3.72395 17.2094
920 1 8.77405 1.38646 2.80372
653 1 -6.09282 4.14911 1.80877
807 1 9.52554 3.817 14.9494
974 1 9.79485 17.6505 3.00432
1983 1 10.9379 1.76489 2.33218
1447 1 10.5331 2.15845 15.1333
1856 1 12.2164 5.09846 15.1416
311 1 11.6249 5.18592 2.63307
1512 1 -1.01907 3.93719 15.8034
861 1 13.7176 3.68486 1.96934
596 1 0.307186 4.73262 1.93748
611 1 2.0969 3.22956 1.65555
1134 1 1.89328 -8.20851 1.72311
380 1 14.4511 3.52473 2.70187
1689 1 14.7995 3.23212 14.8637
1243 1 2.46657 4.42197 2.51104
651 1 3.3584 4.68776 2.982
332 1 3.12627 3.50449 2.54919
485 1 3.01001 4.63765 0.841993
2044 1 3.92335 17.9239 2.12186
1793 1 5.82189 5.01574 16.3315
1075 1 6.22008 19.2909 3.55903
1857 1 6.16665 4.40999 15.4063
663 1 6.44182 6.02066 16.2778
1859 1 -6.39424 3.35534 16.2216
406 1 7.32955 2.97238 1.49471
195 1 -6.20989 5.20943 1.6093
50 1 8.3505 5.36132 2.83592
483 1 -2.57397 6.16153 2.18596
1011 1 8.46956 18.8689 1.53613
1250 1 11.4788 7.31836 15.833
1535 1 13.5276 18.4131 16.4583
1391 1 11.671 6.10784 3.09617
519 1 -0.204035 -8.10476 1.77708
1409 1 -1.56559 6.42302 2.13752
1497 1 12.6637 19.0202 2.36316
1981 1 13.5594 4.19232 17.4507
1741 1 -0.245655 7.65954 15.0669
879 1 2.11294 7.84725 4.52771
1058 1 0.867404 7.21564 15.9923
922 1 13.8449 7.61017 16.8481
1298 1 1.82725 -6.64565 16.2048
734 1 14.6368 8.22499 1.92985
751 1 16.582 5.23987 2.1614
874 1 3.90265 6.86041 0.976306
1938 1 4.02607 5.11811 15.2472
1966 1 2.56952 8.18538 16.1508
746 1 -8.19058 19.6558 2.48006
1550 1 5.39816 7.12182 2.09801
484 1 -8.86103 5.02223 2.14111
1871 1 5.83006 8.00241 16.1868
1521 1 7.30855 5.40957 2.95281
794 1 7.75553 -7.34065 16.4344
1197 1 9.34415 7.92201 17.2728
1215 1 20.3895 8.21574 2.08507
133 1 -5.02944 6.93719 2.70235
822 1 -0.831159 6.55201 2.93345
709 1 -2.29663 7.68362 1.20467
1651 1 10.75 7.76818 16.3571
1690 1 12.6411 7.36647 15.6417
481 1 -2.76838 8.01652 3.70272
571 1 12.5289 7.95929 1.01052
179 1 13.6645 20.3595 2.04594
398 1 0.043982 8.19376 2.253
872 1 3.27894 -6.15053 2.90464
495 1 15.6308 9.80674 2.24669
391 1 2.4359 -4.57528 3.21851
1544 1 1.26327 9.25428 15.3986
337 1 3.00504 23.6646 -10.551
634 1 4.46181 8.04983 3.08652
61 1 2.40735 8.12956 0.435858
1070 1 4.313 -6.51677 1.88881
1882 1 17.9696 6.97376 16.8322
572 1 3.859 6.09187 1.51639
109 1 19.6496 -6.38386 1.2148
1095 1 7.97199 8.75426 16.4753
1357 1 8.31574 8.04316 3.41607
2039 1 6.70881 7.23071 17.4769
84 1 7.20736 8.19083 3.29026
65 1 8.93376 10.5714 3.76569
125 1 9.81902 -3.59511 -10.0169
253 1 8.84163 8.09423 2.57907
1614 1 11.4973 8.58691 16.6497
1125 1 -2.94707 6.74613 16.7023
1940 1 10.5502 9.28391 17.4582
566 1 10.8936 -3.84187 2.89298
1118 1 11.8198 7.39774 3.34432
1775 1 11.6425 9.49992 15.6967
1805 1 12.21 9.25898 2.7907
2038 1 12.8841 23.0082 14.8967
832 1 15.3739 8.64165 2.42222
569 1 14.7374 -3.30779 3.58444
575 1 14.3804 -3.21842 15.0065
1796 1 2.7967 10.5737 2.06644
1089 1 3.46872 -4.09398 15.7139
705 1 -8.77592 9.39365 1.74925
1861 1 5.722 8.88156 15.525
1406 1 19.3274 10.6261 1.38088
836 1 6.94324 9.27514 2.36533
1205 1 5.91751 9.99713 15.9567
878 1 9.75379 10.2202 2.56959
1532 1 7.42635 9.90741 17.3756
193 1 -2.85893 8.25727 1.79797
296 1 -3.12247 -3.52187 1.70453
1768 1 -2.96842 10.8102 16.9698
1613 1 9.83141 11.1429 17.4696
844 1 -1.49033 -3.17071 17.0662
1241 1 12.7872 10.2809 15.8595
2047 1 14.4547 23.5121 16.096
424 1 0.16855 9.32022 1.88299
233 1 1.31568 9.48448 -10.423
1013 1 14.9598 25.9497 0.340304
1244 1 13.8036 10.6006 2.31318
451 1 0.493773 -2.00167 1.17398
1593 1 14.2664 -2.45816 16.6089
1277 1 15.2026 12.8005 15.1094
24 1 1.61306 -1.44754 2.47802
82 1 2.38165 -2.24743 2.71322
1032 1 -9.25467 -3.27091 1.54029
1131 1 3.89611 -2.3617 1.17602
1346 1 4.98348 -4.0345 2.73291
857 1 5.08287 -2.87673 16.2773
185 1 6.34363 12.1431 2.77334
462 1 5.35224 11.856 3.10433
991 1 7.72799 10.9375 1.77578
1886 1 6.16974 11.1523 15.8258
1221 1 7.13535 11.2995 2.51377
216 1 7.50824 12.3236 2.37266
1588 1 -5.71154 -17.3065 2.66422
1932 1 8.73268 -3.42253 15.6793
2046 1 9.38342 10.4658 14.6128
1933 1 8.7451 11.407 17.9756
1623 1 10.6784 -2.94326 14.4645
208 1 9.61218 9.74839 1.61501
1079 1 10.9353 -2.5661 -0.122104
1042 1 -2.52925 -2.17493 1.73208
2019 1 -1.92358 11.1653 14.5694
190 1 11.4831 10.657 2.09861
964 1 -1.31392 11.2834 1.78514
1743 1 -0.721095 12.2222 2.8759
932 1 -0.585443 11.1503 2.76779
1390 1 14.9502 -0.441796 16.2373
1 1 15.4167 0.02878 1.15821
850 1 2.37976 -1.58543 15.271
1273 1 3.53189 12.936 2.13178
1633 1 4.51246 -1.12091 15.2913
111 1 3.27027 11.7821 -11.4115
1538 1 4.26268 -2.34432 15.8838
290 1 -7.8084 13.3761 16.3993
769 1 5.56464 -15.1376 2.08316
1226 1 8.99063 12.9256 15.2509
487 1 -6.94026 12.0596 1.80216
509 1 8.78491 11.3028 2.36657
1155 1 7.16592 -0.399474 2.03357
255 1 8.41167 -1.72675 1.47373
863 1 23.0159 -1.97003 1.69279
488 1 -3.90271 12.5702 2.32938
349 1 24.2932 -0.686025 3.02294
328 1 -1.45953 -1.40861 15.5423
1018 1 11.3653 12.4271 2.24688
454 1 -1.50453 13.9056 2.54402
1302 1 13.3867 11.5941 1.9093
1056 1 13.8371 -0.57008 16.9038
1854 1 27.4382 -13.5944 2.35204
377 1 13.9024 2.70933 3.04166
1280 1 0.985671 12.3075 3.63066
506 1 0.903731 15.2796 3.00506
1615 1 0.548417 0.475178 16.9119
600 1 15.4587 0.9418 3.15277
666 1 2.82616 0.0123338 -10.8195
1458 1 2.96926 14.7808 15.989
694 1 2.24418 15.4664 3.85548
2045 1 17.4305 12.9456 3.55098
1776 1 3.97002 13.767 16.4598
6 1 4.1686 -0.462601 4.5961
81 1 3.43264 0.441522 3.66572
1766 1 6.41113 13.702 3.61432
779 1 4.81615 0.603954 -8.98282
966 1 5.76309 14.8194 5.8676
845 1 8.19493 13.1078 2.15898
382 1 19.0779 0.589487 3.45717
1652 1 -6.23561 2.06636 4.25466
381 1 8.13826 -0.557128 3.13273
315 1 8.74335 12.3043 2.43735
741 1 -4.61046 14.8871 3.82002
478 1 9.54767 16.6725 3.78218
1522 1 10.0086 13.833 3.09057
1217 1 -3.62045 14.9776 4.44167
821 1 -3.8069 15.337 3.19095
263 1 9.64335 0.264515 4.10988
947 1 10.888 13.4551 4.67217
1184 1 11.318 0.936487 2.07006
411 1 12.7824 0.432301 4.2962
743 1 -0.736943 16.0066 2.78071
1634 1 -0.183462 13.4014 18.2453
75 1 -0.631652 1.60414 4.62907
526 1 -0.261085 0.98575 5.36029
1350 1 -11.4577 2.02878 16.5566
419 1 2.9427 2.14694 2.12717
217 1 16.5954 14.9434 3.35226
1574 1 3.81017 1.32892 17.8239
1510 1 16.6986 15.9017 4.44466
1774 1 4.28799 16.5655 4.88547
1193 1 4.80796 15.1493 17.5607
644 1 4.89691 3.01212 16.5152
49 1 7.49708 0.784262 3.2372
1429 1 6.68484 0.534628 2.64218
1021 1 8.0761 16.7425 3.93649
1213 1 8.41437 17.0261 5.4806
1482 1 7.78584 1.94623 3.28567
1218 1 -5.67021 14.8966 4.08405
610 1 -6.19559 2.80887 4.99708
747 1 -4.03338 4.01963 4.25651
1041 1 -4.84501 -10.8309 4.64406
206 1 -3.68346 16.6355 4.84891
852 1 -1.14398 4.54048 3.12161
213 1 11.1916 1.15401 -9.46782
761 1 13.3771 15.2377 3.57094
977 1 11.7974 13.3547 3.69888
2013 1 12.148 14.7693 3.5069
355 1 2.18336 2.87703 3.95248
309 1 16.7435 2.67939 3.28692
500 1 1.61911 3.64541 -9.10718
368 1 4.10004 3.71482 3.06019
123 1 17.7183 2.22338 3.61891
721 1 4.77966 18.2601 3.09656
884 1 4.36285 3.93205 -8.94237
764 1 6.66989 18.4514 4.53957
1772 1 5.36021 3.39507 4.75064
330 1 6.5843 2.53471 4.63076
1625 1 5.74139 2.87604 3.41637
1257 1 7.24111 17.5632 4.76785
860 1 8.69479 3.35304 3.01473
1647 1 9.00861 4.50506 3.45606
101 1 10.494 5.53769 -10.9435
1143 1 8.87367 4.27937 2.07189
988 1 9.96605 18.6576 1.43551
1002 1 11.0965 18.4421 3.46143
30 1 12.1881 -12.2382 -11.2573
1432 1 12.0647 18.9732 3.60482
40 1 0.762116 3.4238 3.68876
524 1 -0.285119 3.56449 2.98179
1707 1 13.183 5.34818 17.352
618 1 13.0439 4.22288 4.69637
617 1 -0.68813 2.62362 4.90056
1480 1 1.70519 17.6911 17.1763
476 1 15.4162 6.17438 3.78398
1344 1 16.5122 -9.8518 3.64932
51 1 2.87595 4.88967 4.55723
1040 1 4.19707 -8.30649 3.37773
322 1 4.77356 4.85196 4.34648
163 1 4.42857 6.73236 -8.72328
275 1 3.8552 5.20752 4.78677
605 1 5.11772 5.71612 3.44428
1872 1 4.9477 5.78948 4.5007
156 1 5.79815 6.49656 4.02253
665 1 6.03168 19.4411 4.84426
973 1 7.24065 -8.09212 4.722
1485 1 5.76935 7.00673 3.14601
1899 1 5.47987 6.7002 18.6248
1557 1 8.10467 -9.42872 2.74364
1518 1 8.23557 19.9952 17.562
1451 1 7.17325 4.71897 3.62775
1171 1 9.09307 5.60361 3.51198
158 1 11.2345 6.01313 4.36225
1148 1 9.8072 20.0482 2.95633
1136 1 9.66974 4.87226 2.58923
76 1 12.4473 6.31814 4.02412
893 1 14.4716 -9.28137 4.28633
1074 1 1.10098 4.74316 -10.5198
612 1 1.33727 7.33293 3.96085
2014 1 14.793 7.95751 16.6894
1509 1 2.34065 5.95407 2.82998
308 1 13.3569 6.0815 4.68252
1969 1 16.0837 4.93135 17.2633
177 1 1.96358 8.22818 3.53886
1905 1 17.1621 6.24687 3.22676
392 1 3.73322 7.51638 4.14621
1211 1 17.5197 8.7061 17.5999
345 1 16.1836 6.95927 3.34802
791 1 4.40609 6.11541 16.2838
31 1 3.88224 6.34332 4.17211
720 1 4.78849 9.23486 4.63287
452 1 6.70866 20.3341 6.05348
833 1 6.95752 6.35147 3.4762
750 1 6.5519 6.63879 4.76447
1722 1 20.2785 7.35782 2.74742
429 1 8.84478 5.15303 4.77392
1903 1 7.68594 7.15276 17.2169
1661 1 8.32846 7.72373 18.014
1682 1 9.23833 6.38377 18.4488
1630 1 22.7629 6.84055 3.79844
1491 1 10.2462 6.34451 18.3119
552 1 -2.51887 7.06474 -9.51871
1035 1 0.732211 5.65421 3.70894
2029 1 12.2116 6.30862 5.09271
1973 1 12.7834 7.2384 17.759
1801 1 -0.0106392 4.99368 5.0404
1005 1 -12.2273 6.61319 4.72505
1200 1 3.61392 8.77015 2.65312
96 1 16.2391 6.79392 4.57843
1590 1 3.01285 -4.41082 4.19588
150 1 2.98297 8.30027 3.64603
1786 1 16.6483 22.381 19.5283
71 1 4.65704 9.60104 6.13745
320 1 5.00567 8.2257 4.14931
285 1 18.853 7.46081 -7.86507
418 1 5.95776 7.53759 4.51021
1987 1 -7.9163 9.4283 17.6944
686 1 7.40706 7.5484 4.60792
1165 1 4.89056 7.18507 4.14269
1428 1 8.53902 9.5295 3.55015
840 1 9.56231 7.52861 18.3578
1950 1 24.0602 -5.23166 18.2612
615 1 9.8906 8.31293 2.77746
716 1 -3.52013 20.8994 3.839
989 1 9.11735 22.1474 4.48662
1138 1 -0.904638 8.67429 -11.5837
1929 1 -0.758958 8.22909 4.13855
153 1 12.5214 9.4732 -9.83257
1198 1 -0.614423 22.5143 3.12127
214 1 12.7695 7.79155 3.09207
329 1 0.632293 8.86815 2.8581
953 1 2.18356 9.9163 -9.78188
1618 1 1.78884 10.8245 18.2443
387 1 1.97155 -3.21408 3.01438
1317 1 4.02555 -4.17842 3.24205
902 1 2.36094 9.32067 5.2894
1699 1 3.71077 22.6258 5.04309
1896 1 4.84507 8.93092 17.1634
748 1 -8.82203 23.5843 3.89508
937 1 4.80697 10.3505 5.06653
1023 1 18.5592 24.6199 3.6447
152 1 5.69336 10.256 3.3248
1755 1 5.85089 22.7269 2.87706
1300 1 6.45419 -3.50166 4.12011
1817 1 5.38559 -2.94322 5.84909
356 1 6.8308 10.3938 16.7873
1377 1 -7.01407 9.22936 17.0759
1935 1 6.73509 8.33235 17.9913
800 1 8.98458 -4.16938 4.73275
1573 1 -3.97041 -3.06544 4.7375
1331 1 -1.81742 -4.97491 4.04009
245 1 10.6152 10.3629 4.2379
367 1 10.123 9.50342 4.81364
987 1 -1.92975 11.6767 -10.881
2 1 -2.07754 11.3165 4.03725
1753 1 11.8152 8.54524 1.81999
739 1 -2.16193 23.4936 3.9305
1437 1 14.7758 7.82289 4.91607
1924 1 -0.436346 10.199 17.0513
1469 1 13.954 9.50479 4.00428
67 1 0.140311 12.5313 4.11757
35 1 0.953231 -2.0493 4.51895
1159 1 2.60683 -2.66404 3.60271
1405 1 3.87456 10.4908 2.69486
468 1 4.79396 11.9372 -9.61019
144 1 3.61267 -1.80181 4.1318
197 1 -8.04678 10.7331 -9.20389
1296 1 6.01796 -0.896458 17.3982
469 1 7.87014 10.6246 5.43908
1738 1 6.18916 11.2156 17.0612
203 1 -6.21129 11.0323 3.69769
541 1 8.3082 -3.26468 4.57523
1114 1 9.4941 -1.67217 4.31717
122 1 10.6501 11.4758 4.30639
1945 1 10.9774 -1.34213 3.65809
317 1 9.78791 -1.55915 3.31227
338 1 12.0766 -1.07636 3.11076
1664 1 13.9686 10.7744 4.30447
1808 1 12.4941 -2.06563 3.6513
97 1 1.93088 -1.04182 3.36807
1091 1 0.768389 13.5425 4.13276
316 1 15.6335 -1.44915 -9.30131
471 1 2.9338 12.4977 -10.7973
1946 1 28.9896 11.3405 3.64508
1858 1 3.97872 11.6279 16.9541
936 1 4.76069 12.8182 3.60907
1800 1 4.3914 -14.9437 16.2969
1810 1 6.9691 -0.756664 16.7587
361 1 5.68742 -0.193056 4.41858
1835 1 -6.96001 1.1472 4.42719
735 1 5.78467 13.3585 5.43001
583 1 8.43134 -0.0410231 4.05359
1519 1 7.44557 13.6712 17.6653
562 1 7.95227 -1.80645 3.29944
491 1 -3.10986 11.83 -11.0217
1554 1 9.27242 -0.645264 3.47125
542 1 8.68697 -1.32856 3.80023
1733 1 -2.49773 12.4447 4.69136
608 1 10.742 13.8904 3.81431
1665 1 -1.64599 -0.209931 4.84151
423 1 -0.0263243 11.5915 3.83201
539 1 14.0846 -1.46151 2.62263
1166 1 13.0243 14.1 3.22742
1448 1 13.9235 -0.940129 5.54689
103 1 -13.8951 0.0256805 -8.06947
1022 1 15.4555 0.0324819 3.40021
1322 1 0.816813 14.0594 5.23774
842 1 2.47063 0.679101 -9.53361
1026 1 -10.734 1.17836 4.96494
1289 1 3.93852 1.98841 5.08381
2025 1 3.85582 14.7555 5.64184
1624 1 7.01748 1.76444 19.0231
1328 1 2.75876 13.3349 3.86888
1582 1 4.73871 1.44706 5.34682
963 1 -6.68487 15.0491 20.8137
1407 1 21.3542 1.81984 19.9292
1884 1 6.73733 14.5773 19.8253
1366 1 8.22486 1.31388 5.14119
59 1 8.82201 2.20755 -10.0159
1913 1 9.56702 13.8563 19.5506
502 1 9.39521 1.11695 5.42222
685 1 -2.18255 2.15801 4.43817
891 1 24.1234 15.0242 5.75586
952 1 0.168534 14.4073 -9.26636
929 1 -1.48959 0.983982 4.91692
1754 1 13.811 16.0519 4.21496
704 1 12.6651 3.61475 5.52279
182 1 13.2906 1.95897 -8.00457
1662 1 14.5805 1.59752 4.06671
895 1 15.411 1.44254 4.78871
656 1 5.05469 16.1313 18.0752
1130 1 4.50461 4.61712 5.98295
1351 1 3.08879 3.62953 4.82011
712 1 6.18778 15.6803 3.80102
171 1 6.41837 17.1547 5.05766
689 1 5.68663 15.0262 4.55028
1341 1 20.509 16.518 5.73502
547 1 -7.78485 2.22616 5.63216
788 1 9.522 2.13154 4.85685
1307 1 7.36363 3.17151 8.03117
911 1 10.6559 2.19018 18.7513
1457 1 11.724 16.1232 16.4094
1891 1 -2.15332 1.65056 5.36423
1219 1 11.0697 2.00852 6.38047
1379 1 -2.24079 3.11855 3.62047
1788 1 12.2856 3.51887 16.5972
1144 1 -1.13546 0.953273 5.96287
175 1 -0.626686 0.786142 7.64425
1729 1 -1.89097 16.6873 18.6869
1414 1 2.23082 18.4465 5.27733
189 1 15.1418 -8.67787 -7.06908
1158 1 14.8791 2.51412 4.37573
1716 1 15.0136 2.50941 3.27977
262 1 3.76622 -10.499 3.96273
1531 1 17.2154 4.28022 5.62538
1216 1 4.92352 3.77126 3.7682
142 1 3.56507 4.16217 6.671
1343 1 5.62186 4.36031 4.74498
896 1 5.18595 3.80409 5.69508
357 1 4.91051 3.64763 6.68631
1294 1 -7.16318 4.47182 5.53289
875 1 6.08555 3.4163 6.14957
1807 1 6.23859 3.71737 17.7517
1718 1 21.8243 4.30889 19.656
1942 1 8.15789 17.7826 3.78399
44 1 -4.97807 3.9849 -8.90978
1195 1 9.57374 16.4002 19.5379
1347 1 -4.07891 3.76914 5.31441
1847 1 10.9341 3.55442 18.7637
1103 1 10.5788 4.54998 4.60491
1748 1 10.4714 3.66379 3.73031
755 1 12.4102 3.83872 6.50649
633 1 11.565 18.2185 4.28472
1659 1 12.4882 3.48703 4.10973
1844 1 13.4994 -9.53852 20.1654
395 1 12.9148 4.55116 5.71361
1326 1 3.10409 19.1125 5.6638
1427 1 3.47166 6.50038 5.50321
1479 1 1.8463 18.3921 4.28119
1363 1 -9.97535 4.42001 3.90281
110 1 15.8421 5.59665 -7.58217
1240 1 4.34186 6.20667 6.96439
602 1 16.7155 6.10396 6.44368
945 1 18.0279 19.4604 5.80174
2007 1 5.37391 5.1906 5.34782
580 1 5.45849 5.97835 5.99591
1237 1 6.65069 18.117 6.58461
679 1 3.98093 7.4358 5.52252
1822 1 21.2724 4.88587 20.4484
369 1 7.30092 -8.54483 5.67969
1563 1 21.3698 -7.17642 4.72007
36 1 7.9007 4.76216 4.9236
1771 1 8.0284 18.8574 3.93512
183 1 10.028 -8.74545 3.52117
1288 1 10.375 6.43906 6.51083
1964 1 9.72969 5.89356 19.4554
906 1 -2.98105 18.2553 -6.58061
594 1 9.0304 6.55175 6.1592
545 1 -1.95155 7.5614 4.88025
797 1 11.2656 5.30723 5.24735
1111 1 11.7373 -9.03648 6.77587
919 1 -1.00537 5.15994 4.59794
167 1 1.33762 5.21002 5.25104
333 1 15.1842 6.2696 5.74003
1263 1 2.38256 5.88403 5.09313
1420 1 14.0257 -6.26509 4.32354
141 1 2.84988 19.4799 3.94548
477 1 16.1879 20.3871 22.3058
445 1 16.7574 7.88348 4.80256
652 1 3.78491 7.01191 -6.91472
1656 1 4.80429 -6.40376 8.04127
2003 1 18.0976 8.24853 5.08705
1873 1 5.83987 6.99905 20.7568
825 1 8.04547 7.92988 5.61266
1881 1 8.55589 5.41378 19.7794
765 1 8.70523 20.3138 7.2414
756 1 8.06585 21.1192 7.79745
831 1 9.95407 -6.72387 5.63233
166 1 -4.09573 -5.33578 6.78056
826 1 10.4442 -7.69386 3.74319
55 1 11.07 6.64174 5.389
639 1 11.8362 8.04199 6.07707
145 1 13.1053 7.11989 5.10096
1339 1 12.006 5.57529 5.97773
39 1 -2.88869 7.58676 5.10767
810 1 0.650305 5.7569 4.74873
248 1 14.0486 21.3495 5.75922
1304 1 0.920246 -4.71991 5.3741
282 1 -0.823841 -5.70944 -7.76751
1668 1 1.92784 8.37356 5.42397
128 1 15.9373 9.41778 6.56119
1260 1 2.21781 8.13544 6.5376
1248 1 14.6717 8.43009 4.04558
1049 1 5.99445 8.80807 4.82493
2005 1 5.03384 8.78788 5.71533
14 1 3.59281 -4.57041 6.86218
173 1 5.78301 10.0683 -8.52802
1303 1 21.48 7.07191 6.72817
1937 1 5.99863 9.21838 19.4599
310 1 7.93458 8.80049 4.07737
294 1 -6.30972 9.80211 18.4847
1239 1 22.8318 7.80069 5.60266
1985 1 -4.18991 9.07182 17.2884
901 1 9.62302 9.86989 -7.91807
910 1 8.49243 7.03199 -8.55879
1637 1 10.2735 8.09557 5.90667
1892 1 -1.5013 7.09956 19.5886
1081 1 12.3876 8.4237 5.03244
813 1 0.189592 8.29201 4.87469
1305 1 13.1178 9.30273 4.85352
525 1 1.95999 -4.72129 4.2703
993 1 3.65897 9.888 5.88288
521 1 3.26746 -3.00537 5.2395
2035 1 1.55556 9.81759 19.4045
839 1 3.54947 -3.09254 3.87993
1116 1 4.55098 -2.51465 5.7936
1900 1 5.17574 11.5475 18.7533
729 1 3.85093 9.89827 18.2674
1327 1 6.00361 -1.75631 4.26427
671 1 22.0964 9.6717 5.53307
139 1 7.79903 11.6997 -8.97887
1571 1 8.84213 -3.32341 20.0222
244 1 -4.41577 8.74978 5.74234
22 1 7.84287 -3.64961 6.3929
2021 1 -6.85564 10.314 19.2526
1870 1 10.872 -3.68144 5.37199
154 1 10.6591 9.81805 6.6686
1078 1 10.1245 11.1191 7.90624
1878 1 11.9015 9.45701 18.5482
998 1 -1.9897 10.5025 5.14682
1082 1 13.7019 -2.24325 5.08144
1567 1 26.1938 -2.8458 4.3404
210 1 12.8225 13.0711 -9.947
18 1 2.20577 -1.17456 -8.22112
889 1 1.72375 11.6759 5.202
1750 1 13.9833 10.0167 5.11076
1543 1 1.01684 -3.86115 4.43981
1971 1 2.24885 10.5578 6.03064
425 1 2.46839 10.2381 -8.71454
1761 1 4.22835 12.0875 18.6065
1864 1 17.0296 10.8234 20.071
1660 1 3.63426 11.5486 5.64114
1167 1 -9.62417 -2.59748 4.60674
135 1 -8.57784 12.6892 18.3391
1863 1 7.04346 -2.77544 18.3976
1604 1 8.77302 11.2339 19.1087
1648 1 6.98109 12.2097 3.94612
1388 1 -4.99341 -1.17293 4.86488
559 1 8.09233 -2.3974 6.54081
1112 1 -3.97483 -0.686643 5.02375
250 1 9.89733 10.803 -7.43728
638 1 24.9602 -2.16674 5.05644
917 1 10.2058 -1.55744 5.07805
463 1 10.3644 11.8382 6.60503
1579 1 12.0982 -1.19042 4.20265
1627 1 10.2486 -0.916994 4.11189
851 1 12.4791 11.2485 5.46313
1085 1 10.336 -2.46413 5.33414
771 1 11.2206 -1.28594 5.82715
834 1 -0.761635 -1.69414 4.63414
1829 1 -1.6346 -1.38833 5.20839
1238 1 12.652 10.2291 5.21965
1006 1 1.18154 26.3308 4.89003
792 1 14.8631 -14.6724 6.64345
1698 1 -10.8739 11.3822 18.3069
1182 1 16.1453 12.9963 6.35763
801 1 -11.669 -0.440623 4.53338
1342 1 16.7604 -0.274291 18.7181
997 1 3.13326 25.9823 5.14729
1278 1 4.51885 12.2456 6.00281
933 1 6.33025 11.3961 5.9224
1515 1 4.65531 13.557 5.50459
697 1 19.6162 12.2234 5.25639
1749 1 7.61577 12.668 5.49667
222 1 6.27513 13.5917 6.38581
1904 1 6.25656 14.1567 18.6931
1313 1 -7.03124 12.9878 4.75526
576 1 7.79728 -0.94673 4.22634
293 1 -6.62496 -0.144573 5.6692
711 1 9.51845 11.7837 5.88612
1124 1 -3.09992 -0.57852 19.4616
888 1 24.3856 0.48433 6.70332
819 1 8.88568 14.3467 4.64414
178 1 10.1865 0.341703 -8.58772
1380 1 -2.4057 0.71138 5.24797
2000 1 11.626 13.4517 5.84478
501 1 -2.14746 14.7196 -7.34276
654 1 0.883441 25.6131 -7.87062
724 1 -0.990568 12.8688 5.75932
236 1 1.50709 14.2872 -9.44045
1995 1 -0.00981977 14.413 6.57269
271 1 -0.331899 -0.884264 -7.10811
1594 1 15.7747 14.323 20.4682
1587 1 2.47438 1.7837 5.98835
1926 1 -11.127 14.4628 21.2884
266 1 2.21445 0.407009 5.19379
717 1 3.09428 13.9042 19.6627
1223 1 2.12142 2.45053 5.18832
92 1 17.5595 2.00016 -7.4448
1764 1 -9.60213 13.7662 6.49809
1674 1 3.79552 0.519646 4.74259
1228 1 2.66197 13.5461 7.2135
12 1 4.87557 15.344 6.3421
1602 1 4.72353 13.6823 -6.22759
1335 1 4.97201 0.560379 6.58522
397 1 6.35832 0.975348 7.99014
565 1 7.36366 15.3737 8.16584
827 1 7.74093 0.444868 20.2067
1677 1 7.39968 16.0181 7.27534
324 1 -4.90646 14.418 -7.43648
726 1 9.83173 14.7154 6.68566
1203 1 8.69271 14.2479 7.23085
239 1 9.96723 14.8334 7.89027
1242 1 12.5747 -0.0731186 6.48332
2028 1 11.7364 14.2531 7.52576
903 1 0.772298 3.12638 20.2031
970 1 13.1376 1.76802 6.75799
1063 1 14.3435 1.59603 5.13161
1337 1 15.1062 2.11687 6.19916
1133 1 1.81507 2.38881 7.04581
871 1 2.13709 16.5575 6.15399
1426 1 17.6426 16.8219 19.7016
1109 1 3.09455 2.38853 5.54925
288 1 17.7095 1.11139 6.66704
1353 1 -8.18111 -12.0815 8.31262
1773 1 4.86185 2.52921 5.55277
235 1 5.92017 13.8422 -6.3889
1691 1 7.14908 3.76922 5.79691
1361 1 7.70471 -10.8412 6.38598
403 1 6.05393 14.4484 9.00656
1266 1 6.66155 2.22554 6.58253
1824 1 8.78043 2.11805 20.2167
1727 1 7.46727 0.621712 5.07298
809 1 -4.53496 2.25321 -6.11569
1657 1 9.49588 4.49346 20.398
1970 1 -3.97607 2.91738 8.20566
159 1 10.5773 16.7167 6.04189
687 1 10.9141 3.66668 7.57017
1397 1 10.4106 2.69957 21.0126
585 1 10.7348 2.95165 22.129
971 1 0.0742912 -0.0774562 -6.42076
540 1 0.61683 3.34468 7.48405
1374 1 0.342041 3.21406 4.69294
1010 1 2.47461 4.35614 6.20746