ITEM: TIMESTEP
110000
ITEM: NUMBER OF ATOMS
2048
ITEM: BOX BOUNDS pp pp pp
0.0000000000000000e+00 1.3679807573413575e+01
0.0000000000000000e+00 1.3679807573413575e+01
0.0000000000000000e+00 1.3679807573413575e+01
ITEM: ATOMS id type xu yu zu
1114 1 1.2103 1.19506 0.746562
316 1 14.5441 1.52051 -13.9506
832 1 15.2185 16.8373 0.297758
1913 1 16.8519 15.4698 14.8905
1572 1 -11.7147 1.76861 13.7242
737 1 -8.10409 11.8841 15.0439
1421 1 4.21153 14.8093 1.64247
1892 1 3.72252 0.10214 28.8809
1646 1 4.11212 -11.539 -12.1775
1405 1 18.576 14.0025 1.33091
614 1 5.86031 -0.351015 14.8854
1947 1 6.04887 0.763502 14.7939
418 1 5.55654 14.6155 25.581
714 1 -6.74668 15.6944 15.0457
851 1 6.95688 13.199 0.437077
455 1 -6.61478 14.2783 0.382007
877 1 7.50606 13.0659 -1.27014
106 1 7.15352 0.47421 1.37056
480 1 22.1137 15.5759 1.3652
167 1 -5.56861 13.565 1.85086
1486 1 10.0624 14.5076 14.053
1841 1 9.19427 0.363503 0.0796133
1451 1 9.68828 0.165889 1.31273
1028 1 -0.584009 0.200876 13.3933
1609 1 -2.4443 0.79329 15.8078
1906 1 -2.02071 1.98651 1.98135
188 1 12.6762 14.284 14.1651
637 1 0.440498 1.43282 -1.73107
1554 1 27.9941 -9.67516 13.8853
1645 1 0.454857 2.8455 -13.6345
334 1 2.53984 17.1921 -0.726561
913 1 15.3759 2.59662 12.9212
692 1 2.42846 2.56167 0.921673
2 1 2.51086 17.4598 0.364241
297 1 3.98652 -12.7585 0.546019
2007 1 -9.00414 1.20807 13.4037
330 1 17.9635 1.93201 0.319285
2045 1 18.1449 13.867 -1.16087
1541 1 5.4916 0.337866 0.132831
988 1 5.82299 15.6239 1.66342
939 1 6.91814 15.4332 0.137687
1911 1 18.7657 1.13055 15.7364
1615 1 -6.67795 3.041 14.9883
496 1 -4.34403 14.7643 29.0465
1812 1 8.78332 -10.3366 14.2431
550 1 -3.49376 -11.7671 13.5548
41 1 -4.72169 -11.3169 0.618635
710 1 -1.8075 15.817 0.892868
702 1 26.6879 29.6394 0.396251
401 1 11.4577 16.6392 1.5494
1795 1 -2.52434 3.14714 27.0244
1725 1 12.5877 -10.6936 1.30108
87 1 -0.781709 15.5164 14.9862
1349 1 -13.6502 0.889724 13.9056
219 1 13.7415 16.7353 1.21511
346 1 1.02933 -9.10278 -14.7595
890 1 -0.166566 4.22364 -0.588648
1982 1 13.9782 5.23587 15.2418
658 1 3.07834 1.58465 0.258343
985 1 16.4104 2.2367 13.143
1053 1 15.4229 -10.0799 -1.56902
1122 1 15.1472 5.58367 13.4931
237 1 4.71247 3.39232 -13.705
1151 1 17.5171 4.17629 -1.25033
1621 1 -10.3888 -10.9749 14.1391
1921 1 -9.25612 5.17254 14.4545
1521 1 5.76079 3.48295 13.5833
876 1 7.22356 31.0812 0.430249
327 1 6.65862 4.23812 1.75468
362 1 7.50136 -9.84657 1.68865
531 1 7.38576 3.46418 3.06373
1474 1 6.91834 32.0703 0.681569
1856 1 8.01813 4.42259 14.5106
429 1 8.40401 5.30658 1.03537
1744 1 -4.22036 3.98627 14.8605
991 1 9.02014 15.0377 0.0209978
71 1 -3.82494 17.7147 0.0497407
652 1 -1.39216 6.08424 -11.8708
1414 1 -1.84118 18.1179 0.532542
1428 1 12.254 16.6653 -0.191391
1601 1 -3.70292 2.75572 12.5515
1384 1 11.7657 3.40212 14.277
672 1 13.4179 19.213 27.5195
984 1 -13.3506 18.9588 2.74264
992 1 15.8016 4.47363 26.2484
970 1 15.2632 6.47463 0.985625
871 1 2.90096 19.1753 2.05878
1383 1 2.53335 5.83691 28.0951
1628 1 3.16947 -7.36746 13.645
1096 1 16.5396 4.70242 2.65871
1664 1 17.1148 20.7332 -10.3901
2021 1 -8.55503 4.96697 15.0977
1989 1 -23.1213 6.32902 12.8464
166 1 -10.332 -7.35166 14.9093
1574 1 4.14034 6.23921 27.5142
1857 1 5.70382 -8.80554 14.1886
1737 1 -6.14027 4.93358 -0.153638
1002 1 7.45467 19.3117 14.4951
1960 1 -5.50351 20.1038 0.685524
770 1 -4.53074 -7.9795 15.5512
380 1 10.1682 -8.06627 1.76734
860 1 9.42969 6.07202 0.919088
677 1 10.5554 18.0232 12.8235
367 1 12.5427 6.52452 0.838686
1269 1 -3.25086 20.2993 15.1214
745 1 -2.15055 5.42384 13.4888
1047 1 12.3482 5.09321 15.3319
2022 1 12.4207 19.8623 27.0804
903 1 -0.18478 7.01688 14.9473
1295 1 13.9475 6.46804 13.202
695 1 15.0771 8.48978 1.76948
394 1 3.12845 4.29218 -0.37637
625 1 1.56382 6.65733 15.9781
917 1 14.101 -8.2528 -0.596613
697 1 17.491 7.11067 0.714542
1979 1 1.61285 7.56078 15.3584
1951 1 17.9254 8.01353 13.4427
441 1 5.55175 7.78983 -13.7588
572 1 -9.34677 7.37668 1.58092
605 1 5.20227 6.10358 0.475384
27 1 6.75667 -8.16015 -14.3036
1370 1 -7.31505 -7.1191 12.9962
1890 1 5.51627 -7.8049 1.48971
870 1 -20.3352 7.29828 12.5477
711 1 7.04681 6.58636 2.50962
309 1 7.83242 -7.64559 1.84598
1027 1 9.41385 7.37261 1.0144
1431 1 8.40477 7.34617 14.9378
1487 1 -2.2618 7.38126 14.6595
209 1 10.6133 22.6929 -14.8464
1847 1 12.9693 7.67251 14.299
956 1 0.154002 21.3039 0.194593
477 1 26.7401 22.4366 27.9787
744 1 14.7362 7.82327 14.4952
392 1 1.05699 6.65651 3.23181
685 1 0.0949071 9.38058 1.39108
1986 1 1.57269 22.374 14.066
1006 1 2.37397 21.7192 14.4814
9 1 15.8561 9.10426 1.41025
1217 1 -10.4063 9.15289 0.376786
1060 1 -9.84978 8.18057 0.84806
951 1 -8.75132 8.18382 14.4014
1180 1 17.7196 9.55031 14.9531
1329 1 4.846 7.04822 13.7071
1314 1 -6.75634 9.51864 -1.32531
16 1 7.65845 7.55565 14.1122
571 1 6.74025 7.40461 -0.042729
1330 1 -6.01744 8.11117 13.2233
90 1 9.89491 -4.93692 1.65331
1089 1 -4.66444 8.28487 15.1656
404 1 8.52059 10.5918 13.4457
1469 1 9.9391 8.31008 0.620485
266 1 -2.90576 -4.48409 14.4906
264 1 11.9356 8.84612 -1.42519
1968 1 -1.39855 21.8998 13.6703
1789 1 -2.29453 8.83187 13.1268
1929 1 0.168606 10.3108 0.246095
743 1 -14.7196 11.5689 0.636729
53 1 28.1368 -3.01382 15.2666
776 1 -0.161339 10.9703 15.1161
1036 1 2.60322 8.59324 13.6288
1776 1 15.7714 9.67083 27.6198
1702 1 -11.479 -3.49328 16.3465
11 1 1.11881 -3.06951 0.406762
1093 1 15.3738 -3.17555 13.3405
307 1 3.87538 -3.28633 16.2196
1340 1 4.55645 9.41695 29.7161
1530 1 4.91084 24.2458 2.79583
468 1 6.03457 9.9596 -13.9103
1606 1 5.45327 8.82875 15.084
1617 1 6.28435 -4.20554 14.6414
900 1 6.68919 -6.07356 14.6362
304 1 -7.68361 -5.15716 14.1636
1674 1 6.79218 -5.23159 1.69713
825 1 20.6669 8.69091 0.570117
1165 1 7.56747 9.31189 1.5162
471 1 -4.17063 9.93631 -11.4306
644 1 -3.94957 -3.18175 16.8109
779 1 9.40313 -2.16833 -12.7972
2024 1 -2.68265 8.61781 15.2436
1687 1 -3.30544 9.92381 27.448
57 1 -1.86059 9.98603 1.35407
275 1 9.93862 10.4844 1.4227
1460 1 26.1817 12.7148 14.0438
1495 1 11.3812 24.585 -13.441
845 1 12.7949 10.281 1.04521
699 1 11.925 -2.67485 1.07731
172 1 15.1628 11.5883 1.71068
999 1 2.19663 10.8374 3.4703
1782 1 2.1661 25.2528 16.3781
2000 1 14.1646 11.463 14.4576
1977 1 1.37036 10.9214 29.9396
1232 1 4.39809 24.1586 14.9844
83 1 5.44389 10.4803 0.594107
382 1 16.0934 -2.54436 1.68123
1373 1 3.0015 -3.1441 26.6907
1684 1 6.53677 -1.09492 15.1313
1184 1 5.3658 -3.96855 -0.893805
7 1 4.11867 10.8265 -0.0422304
280 1 5.24219 9.79688 1.35308
868 1 -7.49384 -3.27738 15.1172
1516 1 8.07271 11.5541 0.19948
2044 1 8.34725 24.4748 1.09713
267 1 -5.10176 -1.39343 1.09124
1446 1 -6.46892 -3.30414 13.2
1268 1 11.0903 -1.63415 -12.5502
640 1 22.6522 -15.3333 13.8242
253 1 -3.36453 -2.66406 0.432217
1476 1 -0.370498 26.5633 -0.27043
1169 1 12.6477 11.6781 1.8061
852 1 -14.0849 12.3472 1.22626
864 1 13.5507 -2.35919 13.6619
92 1 14.3608 12.5575 -11.888
366 1 1.5811 14.1056 -0.0860997
650 1 1.23839 13.6823 1.75449
2019 1 2.12524 12.6845 14.6925
322 1 3.1659 0.49541 -0.0209045
859 1 15.1246 -1.60156 14.3076
1916 1 2.28369 0.118264 14.4021
1247 1 16.6862 13.1022 15.0279
436 1 -10.2295 11.7254 -0.0391037
104 1 5.1754 -0.926309 15.5051
1150 1 6.8077 11.1562 0.182347
1998 1 -6.24482 -0.68067 15.0022
1652 1 -7.8633 -1.17067 0.560438
535 1 5.61325 11.0864 -0.337212
2012 1 22.743 -0.612661 1.72943
65 1 7.81038 12.533 14.0682
1629 1 8.69036 0.62606 14.8307
461 1 -2.22784 13.8927 0.566245
1956 1 -3.37175 0.02029 13.5291
1263 1 11.6967 12.5236 1.76237
1602 1 11.78 11.2578 2.10497
928 1 -2.55318 1.32703 14.1636
524 1 -2.09147 0.036487 1.60251
1721 1 26.4105 12.7605 15.9568
1958 1 -0.310171 14.6423 14.8442
290 1 -1.60116 13.979 13.4272
435 1 0.377483 15.5516 1.10188
597 1 14.4016 0.929077 1.96499
1866 1 13.2941 -13.2832 17.4083
1786 1 26.9989 15.0402 15.8605
1258 1 -11.6594 14.6946 1.32807
1409 1 1.71369 15.4361 15.5819
1457 1 1.77775 28.2545 16.0843
1140 1 2.62076 -1.81921 3.84276
915 1 4.08986 1.4366 2.82522
1987 1 -10.689 13.412 16.4943
1454 1 17.6298 13.9458 16.4751
1052 1 18.3551 15.5897 3.68956
1179 1 5.92386 1.04927 -10.4731
1044 1 5.48004 0.210395 16.0569
2027 1 6.48927 -0.0493372 3.01034
1025 1 -7.24926 15.8716 2.486
339 1 7.61689 15.8952 16.0022
1287 1 -7.54456 0.928504 2.16743
646 1 -5.40185 0.971486 16.9744
1427 1 -5.67802 1.15254 1.98946
1708 1 -4.74032 13.9066 2.39635
315 1 8.88082 15.5175 2.38673
533 1 9.42465 1.03527 2.86201
2003 1 10.5276 0.721696 15.014
840 1 13.2888 16.2 17.4811
1619 1 -1.08267 2.40294 2.39621
557 1 12.4097 0.837594 -11.8557
1528 1 -0.370237 16.912 15.8932
545 1 1.32404 16.0271 0.75046
1524 1 15.6646 16.4499 2.30632
419 1 3.25609 2.82116 1.48822
772 1 2.19081 3.4664 15.0748
81 1 4.0028 2.69313 2.67706
1879 1 18.0838 2.66841 18.42
872 1 5.15492 -11.1916 0.927092
1335 1 5.08117 1.31782 14.5726
207 1 16.8543 -11.7395 3.00339
1586 1 -8.78353 2.2999 15.7029
1728 1 7.21197 16.3298 17.5751
1599 1 21.682 15.7108 17.5066
754 1 22.492 16.4345 -12.0235
1736 1 8.62636 17.4485 15.482
1769 1 9.76352 30.4722 14.6536
1178 1 9.87986 1.756 14.6462
1805 1 24.3968 3.7982 1.94655
1488 1 -2.4229 1.88454 3.09068
1910 1 26.769 3.94367 15.0546
400 1 -2.15519 16.6038 16.9109
567 1 -1.36373 3.53993 2.11906
1860 1 1.11258 16.8895 15.097
741 1 1.55252 17.9144 14.5352
1835 1 0.472449 4.27481 2.52128
398 1 2.32959 18.5405 0.124712
1822 1 15.1934 4.18989 13.4525
1293 1 14.3709 18.7963 0.410066
1035 1 3.23263 3.91854 1.23018
1104 1 17.733 3.15755 -12.6651
1496 1 16.7299 3.09016 16.8689
2025 1 3.64113 17.4389 2.37677
580 1 5.05761 17.3276 0.942425
198 1 -9.41785 18.0245 1.40181
248 1 19.5899 16.6217 1.72654
560 1 8.06859 16.7337 16.2164
1640 1 21.2468 4.07049 3.94047
1281 1 -7.62902 -9.88135 1.08164
1272 1 7.6646 4.32597 2.67358
229 1 -6.23869 18.5986 -12.1005
413 1 22.7448 2.7749 2.79423
225 1 -18.8471 -8.94143 1.90954
242 1 8.47737 5.65338 -10.0242
2010 1 9.66451 18.5161 2.14248
1612 1 -4.0819 2.85584 13.5879
920 1 10.8833 3.8269 0.809009
295 1 -2.86395 2.64917 0.659565
95 1 -2.93069 18.3245 0.220024
1507 1 -0.702487 17.9304 16.1477
1347 1 -1.98 4.13583 1.47135
949 1 0.508303 6.12022 0.660502
1144 1 0.041938 -6.67934 3.59498
1515 1 -0.407582 19.631 1.21365
1814 1 13.9995 5.818 17.8018
1445 1 1.75726 18.2704 16.5244
1683 1 1.61096 5.28124 14.6052
1873 1 1.97276 5.97426 16.5188
139 1 17.2718 17.4381 -13.3757
1828 1 3.18553 18.585 0.909461
483 1 4.97105 5.38016 3.08804
74 1 -9.25691 6.4369 14.968
1839 1 5.99845 -7.47469 16.352
701 1 19.0443 3.94082 15.724
919 1 -7.02311 -7.97558 15.4084
1705 1 23.1245 18.1483 17.459
1030 1 8.98363 6.07234 2.79182
1163 1 -2.43093 5.75259 -11.6509
564 1 -4.36657 6.77805 1.94305
1339 1 11.3977 -6.97116 16.266
1923 1 -2.3809 5.14515 1.19461
980 1 11.7717 18.5318 -11.3095
1009 1 12.3124 19.0734 14.2
682 1 -0.562277 5.21179 3.40809
1967 1 12.9331 20.4278 2.07157
485 1 0.640522 -6.35332 1.87682
1406 1 29.0533 8.25145 4.17253
1158 1 29.8777 7.3867 3.99449
844 1 3.5066 -5.81389 17.5705
759 1 2.55035 6.68276 15.3772
234 1 4.38275 7.28878 2.80971
150 1 3.059 7.59302 -12.2246
866 1 -7.12873 -5.61747 2.75706
585 1 5.4646 7.66453 30.5154
1064 1 5.20327 6.87759 2.03335
1265 1 7.44269 21.1363 15.5952
193 1 -8.97241 5.98376 -11.4114
1136 1 6.29429 7.03219 3.19128
679 1 8.19426 7.54674 3.31687
211 1 -5.40623 6.98571 -11.3088
976 1 -4.54596 7.15285 -10.3635
1148 1 9.97244 20.1722 2.84932
1980 1 11.3346 8.34167 14.019
51 1 -5.19864 6.79877 -9.61326
258 1 12.9364 7.81988 -11.987
1896 1 12.3171 -9.24985 16.8167
332 1 -0.438551 5.76736 2.23404
347 1 12.1939 5.87971 16.441
1301 1 12.1354 8.44662 1.07053
1276 1 0.104718 -5.41452 -12.4353
1234 1 1.6256 7.58953 2.88032
55 1 18.0895 9.73947 3.26492
1001 1 1.68347 9.05927 2.51848
451 1 1.16426 -4.25883 1.02631
1731 1 -11.7583 22.8775 17.5066
109 1 18.032 -6.66474 3.83906
981 1 30.6785 8.12136 -11.1223
973 1 4.34082 -5.22941 16.592
1142 1 -8.14373 -5.92101 1.51252
1110 1 19.1241 8.53491 29.8961
1086 1 6.2681 -6.71673 1.99126
1641 1 8.05278 8.43032 14.5574
1891 1 -4.76094 7.87477 2.47204
1462 1 6.75145 8.84282 -10.0812
443 1 8.12848 8.41248 -11.454
1456 1 9.89476 7.51898 16.2872
420 1 -3.74248 22.0528 -10.4368
1624 1 10.5755 -6.07396 17.0256
1365 1 12.9506 8.97268 1.81885
1941 1 -3.35075 9.1027 2.69419
449 1 -0.590321 8.49615 16.6171
1118 1 0.374148 6.43566 16.1646
1926 1 -15.1517 9.38295 14.2324
1555 1 14.0854 -4.95459 2.20987
1452 1 14.449 9.70794 2.41986
1713 1 16.6983 -3.83658 -11.5027
802 1 3.12134 24.6592 16.7264
1422 1 3.55813 9.2178 16.5962
717 1 15.3443 23.7611 15.3915
46 1 3.2278 -4.99828 1.73127
1763 1 -8.72269 11.8584 2.29133
1743 1 3.4929 23.7988 4.18681
1458 1 4.42205 8.42508 15.5447
661 1 6.12922 24.2224 2.67208
1730 1 5.51792 -4.0282 16.6056
1408 1 6.22817 9.25523 15.9032
639 1 6.55169 9.66778 3.14212
384 1 -6.37201 9.02252 2.63988
1061 1 6.81708 -2.41101 15.5961
1289 1 -5.45409 -4.02387 4.17022
1509 1 7.53003 9.85912 3.33628
1371 1 -5.57237 -3.63093 2.2923
395 1 6.98255 10.108 2.21311
1527 1 8.92585 8.30872 3.78648
1777 1 10.4764 23.418 15.5373
1597 1 9.37168 -4.87837 2.47297
668 1 9.5032 9.31395 3.33847
1749 1 11.3562 23.6474 2.34787
63 1 27.2046 -3.53552 2.29161
1861 1 13.6271 12.3014 16.1005
1440 1 15.7725 12.6112 2.07735
249 1 3.52749 25.0283 2.12584
1753 1 4.44509 12.0414 1.36001
2009 1 -10.3784 12.2583 2.73872
573 1 21.0924 -16.8118 14.6628
756 1 5.75705 24.129 3.63642
2029 1 6.58608 13.4344 2.03871
1943 1 -6.18821 -1.79524 14.8805
1757 1 7.96691 -2.58052 2.1495
320 1 -4.82791 11.8928 2.13025
1280 1 8.83345 24.4931 16.0716
1759 1 23.4568 11.2002 2.20237
1681 1 -16.312 10.8392 1.60708
1376 1 -3.54076 -2.00382 3.18949
310 1 9.19458 11.4586 3.11919
1875 1 24.6302 -3.50497 3.2864
1279 1 -3.22452 39.6825 3.99114
1290 1 -2.16828 -1.72288 4.00442
224 1 -0.798635 14.1975 2.73279
1090 1 -2.22306 -2.59303 17.0882
1784 1 14.173 25.0833 2.29463
272 1 -1.17732 -3.27938 2.08531
1225 1 1.0662 14.0924 3.09347
1542 1 2.84335 -1.30431 4.7728
479 1 2.8098 12.1017 1.68896
935 1 17.4759 12.5037 0.54101
1262 1 -8.40322 -2.70695 15.5199
1477 1 19.1137 12.2855 17.546
1584 1 16.107 13.7271 2.01763
1080 1 5.02003 -2.12632 17.0349
2038 1 5.43904 12.6329 16.5538
1185 1 -6.10142 -1.11314 2.27419
1468 1 9.9408 12.5457 15.5681
1357 1 9.20367 12.6875 2.683
830 1 8.32366 -0.398223 2.90431
521 1 10.7052 -2.80126 2.58341
1492 1 24.5734 -14.255 15.7741
1242 1 10.8672 -1.75198 16.0339
1520 1 -3.69314 13.7963 16.0226
923 1 11.4556 12.6231 16.5156
1196 1 -2.02563 13.7451 2.79584
1253 1 12.7551 13.5786 1.64338
1259 1 -1.33721 11.9466 2.94196
684 1 13.8997 27.2935 2.06059
1238 1 15.2297 13.864 4.29182
165 1 0.240881 14.7466 -10.7524
2005 1 13.3675 0.294724 4.82762
1155 1 1.8524 -0.838718 3.92098
822 1 -11.6269 13.7615 3.25049
1088 1 1.25809 15.7104 2.86198
922 1 4.6336 -0.427407 16.1332
1863 1 18.5864 0.925919 30.6261
1783 1 18.2936 1.02492 17.9736
1933 1 5.44096 1.84297 16.5298
1600 1 3.66419 1.44794 17.8611
1392 1 7.19898 1.49802 17.9368
602 1 6.73201 0.650726 4.71807
593 1 5.64213 0.964742 4.25528
1450 1 8.16605 14.8682 4.3443
891 1 20.0536 13.3949 17.8975
98 1 -6.14674 0.303768 2.72723
415 1 22.7439 15.304 3.53731
331 1 9.48458 3.42327 -11.5736
433 1 -5.89836 13.891 3.94306
896 1 -3.81243 2.45294 15.5069
1015 1 -3.42822 15.0881 2.28504
80 1 -3.87709 14.9708 5.19059
1648 1 14.1821 1.82652 17.3142
379 1 -1.64413 14.9989 2.6999
1332 1 10.8695 0.992584 16.7839
1125 1 -1.50483 0.612866 17.3135
1771 1 14.524 16.1136 -11.7181
539 1 13.908 2.35071 -10.8198
525 1 1.94696 2.63723 4.34398
1511 1 14.5352 30.1294 3.54998
196 1 -12.1222 4.0751 -11.7639
839 1 4.07284 3.62249 5.47594
1205 1 2.19337 16.102 17.0128
1590 1 2.40642 -12.5114 3.21493
2041 1 16.8213 2.26262 18.4933
1026 1 -20.9698 1.983 3.67092
240 1 19.2451 15.8493 18.1796
799 1 5.45288 2.93028 2.58602
1317 1 6.97988 1.29706 16.4891
532 1 21.9647 3.17849 3.63934
534 1 -4.81816 3.86251 2.9245
1526 1 -4.33355 2.97615 18.3417
966 1 -3.30052 17.628 4.17257
1701 1 -2.91351 16.2654 2.47424
1255 1 -3.7015 3.67989 16.7294
1278 1 -1.45168 15.9942 3.56003
67 1 -2.18857 17.5029 2.62837
1435 1 -2.52501 17.3407 5.42262
37 1 -1.6198 3.11707 -8.6926
453 1 -14.3148 15.2046 3.1886
1045 1 12.7618 3.52257 4.34476
2011 1 14.6852 17.0029 16.1878
19 1 0.0856296 3.41648 3.19981
622 1 14.061 18.2415 4.03514
1990 1 14.7234 4.01961 3.49803
1412 1 2.48159 17.6807 17.197
12 1 2.38712 18.3019 1.53537
592 1 -11.2026 3.66145 -11.2748
1669 1 -10.2791 3.51007 4.26561
1643 1 4.59821 -9.1923 2.60931
134 1 3.58506 16.1034 -9.89096
1605 1 6.26217 3.06614 -10.4812
218 1 7.15845 17.1025 5.07693
1692 1 17.7963 17.2026 17.1302
1698 1 -7.09438 4.49786 17.2743
279 1 22.2387 -8.90682 3.19385
1568 1 10.7403 4.56067 16.3447
1449 1 -3.20708 4.61796 1.44687
220 1 10.4356 16.44 4.96589
2015 1 23.7392 19.1004 2.97925
721 1 11.2397 16.9984 18.1103
720 1 -1.97925 3.7971 3.70092
56 1 -0.522345 17.8644 3.59773
1662 1 12.6014 3.30016 3.21537
1919 1 13.0945 -8.57695 4.41783
1021 1 14.7965 18.9347 3.45004
520 1 0.194231 -7.55905 5.24787
154 1 15.9262 5.11829 -10.0499
1032 1 -12.2626 5.37231 2.07021
426 1 1.53022 19.4482 4.28844
1063 1 17.4423 4.36901 4.78061
1638 1 3.93448 18.952 13.3206
1845 1 2.88348 5.89245 17.1171
700 1 17.2142 4.58416 3.42579
1029 1 4.13745 -8.40856 15.5398
808 1 6.70769 6.71787 4.14434
5 1 6.38387 -9.91441 -9.42247
675 1 6.87554 19.5089 -10.4258
1689 1 20.5751 5.03701 16.3154
1363 1 -7.8266 -8.65277 2.30496
333 1 23.6289 7.12754 4.08522
762 1 22.2283 20.0623 -7.46963
1229 1 8.29385 4.98436 4.58433
355 1 -3.21503 6.02838 3.68773
112 1 -2.97113 4.71635 3.6785
805 1 11.1301 5.42249 3.071
1375 1 14.3127 -9.51297 1.37329
815 1 -1.93378 4.76093 4.23646
101 1 12.7027 5.88309 -8.91544
1022 1 28.8487 -6.6108 4.07531
578 1 12.675 6.46473 3.5772
1167 1 -14.1908 -5.48935 4.00959
774 1 13.8053 -6.06092 18.3183
1758 1 16.049 21.7194 2.128
1562 1 16.3331 -7.22286 18.0731
735 1 2.69406 7.11082 2.60969
1772 1 3.85055 6.52047 2.19869
1048 1 5.12649 6.66534 16.8736
2043 1 17.8272 6.06969 3.17764
883 1 5.6462 5.78392 3.7715
1283 1 6.06677 -5.74412 4.20514
1315 1 -6.04531 7.34109 4.19779
111 1 7.75328 5.54905 -10.9534
1792 1 7.7791 20.2002 17.0503
1774 1 9.39216 20.5405 19.3175
794 1 7.39735 -6.88278 20.845
476 1 7.58373 5.15461 3.70263
1794 1 8.45291 -5.34024 4.74048
1112 1 -4.60064 7.41944 4.67609
357 1 11.0094 7.04323 4.28608
909 1 10.8887 6.90788 -8.3547
1878 1 9.91115 8.33262 17.9741
1313 1 -3.51214 21.4452 1.7216
1729 1 -1.5802 19.2665 31.0955
1017 1 -1.64162 21.0049 4.1419
855 1 -1.69509 -6.44694 15.5358
484 1 0.585498 5.24352 4.90294
30 1 12.9768 -20.0554 -24.4004
1260 1 0.161565 9.30817 16.8409
667 1 14.4202 7.92342 3.87337
1623 1 17.4114 -4.62173 17.7566
1113 1 2.27426 22.0292 16.924
1128 1 14.1785 -5.89094 16.601
1146 1 2.87284 21.9407 6.04051
1842 1 6.17865 9.55575 17.917
152 1 5.44177 9.26751 5.08803
831 1 18.912 -4.94807 3.74931
1583 1 -8.44068 20.6775 18.1631
440 1 19.9721 8.41684 5.29944
850 1 4.36944 7.20176 18.8345
547 1 -6.47906 -4.24918 4.42097
1603 1 -6.44667 8.29889 18.1639
828 1 8.74112 7.74041 5.69509
670 1 8.20798 6.76057 -8.5426
1352 1 -4.26369 8.37534 5.41188
160 1 22.0523 7.15215 6.80149
1331 1 -2.6918 -5.49937 4.48649
1324 1 -2.72013 8.18965 -8.00805
1571 1 10.2853 -4.11544 19.5338
761 1 11.7752 7.44668 3.11263
787 1 -2.67055 -5.19709 3.49451
1271 1 11.6137 7.59066 18.7723
88 1 12.2106 -5.64688 2.42987
1887 1 13.0035 9.15487 17.4626
281 1 -0.926229 9.60129 -10.8454
368 1 11.5764 9.26714 3.11819
1210 1 14.7706 8.69095 3.19805
1444 1 1.22145 23.5529 18.0321
510 1 2.34611 9.88484 4.58589
84 1 14.8498 -3.64088 3.36982
1306 1 2.59319 8.52783 17.9857
621 1 2.94736 -3.71396 3.34795
823 1 4.5585 9.57957 4.33794
1508 1 6.42986 9.5471 5.31118
1727 1 6.66577 -3.2238 4.46657
635 1 32.7831 -4.25002 6.28916
1074 1 6.88042 10.6916 -10.2883
1608 1 -5.68522 -2.74544 17.0877
378 1 21.667 8.68128 3.71868
1975 1 21.1558 23.4614 5.65991
1200 1 8.36375 -4.50856 2.90684
1189 1 -5.62002 -1.85013 4.95645
354 1 -4.21915 9.22394 18.0393
962 1 9.47447 11.6688 4.82645
2033 1 8.45312 10.088 5.28673
17 1 -1.39838 -3.2491 3.13697
1540 1 -3.16162 -4.73653 18.5498
1039 1 11.6445 8.89692 18.6995
58 1 11.7514 -4.02667 -9.56601
516 1 13.8846 -17.982 -9.32621
1626 1 12.8315 -17.187 17.8955
748 1 -12.333 12.2132 3.11554
321 1 1.40923 -2.25002 3.77411
257 1 3.61781 11.3071 3.98774
854 1 0.346158 -2.27074 3.49837
1284 1 2.33604 -2.58527 4.56225
308 1 3.96703 12.6511 2.02136
1672 1 3.30746 9.29491 4.99964
1939 1 1.78796 -1.64517 18.3949
432 1 4.77849 23.6808 5.45799
765 1 6.20795 11.5226 17.1512
371 1 -7.84434 10.4854 5.47656
1442 1 7.22554 11.8084 16.5458
758 1 7.37153 12.9961 3.30552
385 1 -5.83994 26.4872 5.6145
170 1 8.185 -1.62209 -10.6173
1482 1 -4.88901 -3.54061 3.16458
1206 1 7.53537 11.5983 17.7394
1813 1 -4.93129 -1.74113 3.97352
239 1 8.69984 10.8122 4.33139
407 1 9.66586 11.1899 3.98298
1389 1 -16.8955 23.0134 -9.94267
1194 1 11.6726 10.8655 4.54255
1115 1 -0.118719 -3.44376 17.1528
1159 1 -0.517214 -16.0961 2.8817
942 1 14.7996 -0.523886 2.71735
654 1 0.137404 26.4017 -10.3394
428 1 -0.347228 12.9686 4.57071
76 1 14.1678 13.5486 3.86148
1591 1 2.63743 -0.315052 3.94094
1983 1 4.42117 -1.12064 3.27357
1261 1 2.33365 12.4949 3.08205
1978 1 17.0888 -1.13073 3.68087
583 1 4.5769 -3.05391 3.76613
649 1 5.49705 0.0423199 17.0726
1154 1 6.03734 11.6212 16.1859
965 1 -7.31077 12.5943 3.3306
472 1 7.16421 12.5941 4.82016
954 1 6.77554 14.3711 -9.99577
1627 1 8.45809 -13.8046 5.92931
1959 1 -5.74049 26.232 4.10641
412 1 23.3281 -0.0609709 -10.4618
156 1 22.5296 13.3786 3.87968
899 1 -3.77363 13.4165 31.5671
1267 1 -1.85642 13.2649 -9.92558
1796 1 -3.33595 12.7028 3.04916
189 1 12.8047 -0.548131 -10.3566
1883 1 12.5874 11.261 17.7065
1930 1 0.429493 0.937825 4.34279
1802 1 14.6931 15.2999 19.4862
195 1 -13.4355 -0.259162 5.59019
446 1 15.0209 1.17425 -9.90158
146 1 15.3223 14.7718 -8.62384
1069 1 1.15337 0.357436 5.72914
1300 1 3.88019 1.50172 5.20884
555 1 16.9077 0.738842 17.244
768 1 3.40544 14.4632 5.95109
1912 1 4.00767 -0.0232322 17.6408
2016 1 5.80303 15.1581 18.9428
294 1 -6.61865 14.9869 19.3352
1985 1 -4.92695 1.03939 20.7341
227 1 -4.76622 15.779 18.2664
615 1 -3.58306 1.97914 4.27647
123 1 9.08379 0.613309 4.38576
238 1 8.73969 0.841468 5.46704
784 1 10.6052 0.376969 -8.58223
452 1 10.0353 15.4765 6.11335
97 1 -3.75681 2.06572 3.11079
2026 1 -1.22323 -0.06349 18.1889
1395 1 11.3182 14.1276 18.0997
616 1 10.362 0.901578 3.96779
911 1 13.2377 1.54517 18.089
341 1 1.02672 2.93625 -9.01261
1327 1 0.161473 1.78056 5.21462
86 1 41.1375 -10.1824 4.17182
1209 1 2.0404 2.29055 5.23377
581 1 1.17756 1.79955 18.2166
588 1 2.69453 3.41866 5.30094
704 1 16.4495 1.62925 5.48577
579 1 16.1212 1.56709 4.2806
1333 1 16.7134 -11.5198 20.0516
1244 1 3.86613 15.9773 7.00499
1559 1 3.77818 2.6181 19.3984
1587 1 4.93417 2.06165 5.49421
1499 1 32.4692 2.47881 20.3393
1399 1 21.6894 2.64358 18.5348
502 1 21.8803 15.427 5.36197
1429 1 9.30175 3.2203 3.73852
144 1 -5.559 4.66604 5.52229
569 1 10.4369 2.83715 3.6451
317 1 -2.57827 -11.5512 4.01566
861 1 12.5464 2.26655 -9.05184
1410 1 10.9045 2.40527 5.97425
1282 1 11.8247 -12.1223 -9.40277
70 1 -2.80848 4.62898 4.8787
1193 1 13.3308 16.5105 18.5359
1008 1 13.6432 17.9285 5.00316
326 1 -13.3898 3.36114 -8.13151
732 1 15.2419 16.8389 5.66453
1350 1 -11.9187 3.37602 16.9845
1936 1 1.4977 5.00825 19.0576
1974 1 15.1933 4.66194 17.9582
292 1 1.62631 3.73004 4.63224
1085 1 2.82849 -8.15619 18.3689
447 1 29.9598 4.41882 4.75926
536 1 3.42125 17.9614 6.1259
1888 1 5.49595 4.08389 5.88027
1328 1 4.54582 4.53766 6.17404
1360 1 6.63831 -11.5558 4.88656
1663 1 18.5676 3.05092 -7.85489
1433 1 6.04682 2.94921 19.5727
276 1 -5.41767 3.68688 -9.00817
2028 1 5.49984 17.0515 5.05223
1241 1 21.4169 15.2123 20.6773
540 1 -4.21259 6.21768 3.90621
216 1 9.14939 18.1144 4.7318
746 1 -5.55888 16.2951 6.22868
1872 1 -3.92856 2.85774 6.19792
849 1 9.98633 -8.37339 4.3525
523 1 10.4866 3.54239 19.8958
351 1 12.8958 -10.1261 5.46017
501 1 -2.43692 18.3073 -7.81572
1622 1 -1.48557 5.71046 20.2835
376 1 14.3338 4.49035 19.4416
179 1 14.3767 20.5298 4.85448
1388 1 -12.3341 6.07808 5.26302
482 1 5.09199 16.8052 3.876
61 1 3.76809 5.25613 4.16836
1635 1 1.0506 7.05266 5.96878
1062 1 3.15419 6.75922 6.5154
881 1 4.62162 4.49103 3.79462
895 1 18.097 3.29853 1.93368
1578 1 18.2661 -8.51048 4.84321
733 1 19.0472 17.5817 -10.4075
633 1 19.4588 18.7171 -8.81585
979 1 20.0951 17.3033 20.3816
1536 1 5.18787 18.9537 5.64169
589 1 6.73926 19.3975 4.45466
2004 1 -6.49513 -8.9622 18.3318
798 1 4.78885 4.17953 -8.65411
742 1 -4.32013 4.77878 -7.22188
302 1 -4.86318 2.48831 5.52072
1362 1 7.79705 5.77491 5.41129
1103 1 23.8848 5.07714 5.67778
324 1 -3.71886 6.0298 -8.51577
1057 1 -2.49487 -8.24617 20.1805
766 1 11.0025 19.2335 4.42563
181 1 12.3634 20.5622 6.87161
1904 1 -1.52583 19.0722 19.1661
907 1 12.3704 6.9783 5.76696
1522 1 13.678 20.7279 5.55414
608 1 13.3937 18.8088 5.44897
259 1 -13.3738 21.725 -7.78998
777 1 -0.103505 -5.31274 6.88697
750 1 0.977024 7.80889 5.14759
128 1 16.2803 6.41743 5.54426
1400 1 15.3999 8.11791 6.04193
1816 1 17.2024 7.01189 4.45185
1819 1 4.83091 6.19669 18.932
1678 1 -7.10891 5.46421 5.58425
559 1 18.1739 -7.59399 4.20095
1236 1 7.78533 19.7863 4.40219
1659 1 5.99588 6.34602 4.76557
1846 1 5.17668 6.45054 7.13423
943 1 -4.53468 5.44661 -8.04981
862 1 8.87771 -7.85611 4.61237
490 1 -3.43512 21.3521 -22.3166
1359 1 -4.15833 6.06937 19.9705
1391 1 11.439 7.14465 -6.51931
1561 1 -2.47672 5.94422 19.128
300 1 -2.82031 8.03933 -6.85583
853 1 12.9617 -7.59549 5.87066
155 1 13.7027 6.35454 -7.2092
261 1 -0.393573 6.67383 4.4017
1969 1 11.7613 6.30184 18.2111
399 1 -14.4921 7.61468 -8.56412
814 1 -0.206742 -4.51271 -21.3017
1139 1 1.89017 -6.43396 5.03113
1320 1 1.10474 8.88728 4.72639
1302 1 16.529 7.48156 5.35383
1738 1 3.63091 6.49114 19.1479
314 1 18.316 6.65208 -7.40269
1207 1 5.56568 7.59897 19.1443
424 1 -8.19961 8.43282 5.92016
609 1 6.32692 -4.77713 -7.31754
1706 1 -7.17843 7.85993 6.09975
255 1 7.5178 7.69942 6.59643
1997 1 -6.0085 7.69769 19.208
848 1 6.66696 7.49999 18.6309
1219 1 6.44478 6.87894 5.86753
1517 1 8.33566 6.75383 7.71477
28 1 8.49699 10.3452 6.38569
1688 1 8.09174 8.46494 6.55636
1153 1 12.1276 -5.34754 5.79085
75 1 -0.829544 8.80542 4.85739
161 1 -0.998871 9.59067 7.28888
1031 1 -1.67965 -5.15839 -9.66502
730 1 11.3623 23.5788 -6.25581
1944 1 13.8669 8.70377 5.17383
1502 1 14.0185 24.2907 18.0741
268 1 17.4827 -5.36063 5.24773
235 1 2.60868 11.2823 -8.07815
1690 1 3.1516 10.547 5.04937
340 1 5.08462 8.24031 4.65264
1704 1 3.57947 -3.9811 19.61
1181 1 4.58844 8.97947 19.0886
546 1 -8.93034 -1.80647 5.53595
1321 1 -9.20919 9.61621 6.34125
495 1 18.8546 -2.02251 -6.97569
740 1 -6.53684 11.2966 18.7498
893 1 21.3939 -3.05832 4.53967
820 1 7.70127 8.69834 19.0811
950 1 6.43899 10.0901 -7.35612
1480 1 -6.51401 24.6149 19.8225
8 1 -5.67035 11.0121 5.56862
1766 1 7.68918 9.45409 6.76823
959 1 10.3734 22.7632 6.91899
1867 1 9.57514 9.96663 -8.53636
1748 1 11.3967 9.89864 5.29359
549 1 -13.1809 -3.01421 -7.61991
1850 1 13.1664 -3.8547 18.8677
1829 1 -0.264703 -2.8162 5.22922
342 1 14.1306 -3.82777 5.34483
1141 1 15.8646 13.1148 4.88383
1900 1 -1.32344 11.4548 18.7926
1838 1 0.87725 12.5152 -9.56745
1000 1 1.63956 26.037 19.4443
1811 1 3.08663 -1.00099 6.15441
1963 1 4.09083 11.3018 20.5737
1249 1 4.32311 25.7258 4.40674
1775 1 17.9301 10.8236 18.4064
2018 1 2.71821 11.5645 20.2042
284 1 18.8823 -14.7412 6.1895
706 1 5.43511 11.3559 -8.81581
528 1 6.45992 12.1657 4.2703
924 1 7.33474 -1.72228 5.91848
1767 1 7.75395 14.2002 18.7758
576 1 9.62815 -2.66604 6.34385
1801 1 -3.81302 10.1651 4.15793
488 1 -4.16372 12.5467 3.73998
1560 1 -3.29543 -3.09864 5.41077
458 1 -4.7301 12.6136 4.97755
1101 1 12.3926 -4.20183 5.72899
1768 1 -3.04489 10.924 17.6076
908 1 10.8873 10.0328 4.45777
595 1 25.5851 10.0801 20.0505
1825 1 -13.7657 -1.64335 4.17111
1419 1 1.48959 10.7889 5.10949
456 1 1.1485 13.1076 5.02629
673 1 14.0785 12.4747 5.19379
283 1 29.6787 14.3097 5.70929
2002 1 -11.0535 14.1704 18.2763
1610 1 2.97116 13.5454 5.35897
1632 1 18.2939 0.249923 4.93354
1117 1 3.59326 0.535356 4.79728
1453 1 -9.93819 12.9343 4.73754
1988 1 5.60891 12.4851 18.7337
1040 1 5.59364 -1.07439 7.09066
1732 1 -7.35763 11.7968 5.44233
1235 1 19.6875 13.4058 5.55631
1525 1 8.94412 11.8529 5.82975
1361 1 5.28405 -13.959 4.41023
997 1 6.42684 26.2533 6.17336
932 1 -3.35192 12.7858 5.2374
1995 1 -5.32619 13.3455 4.88424
586 1 11.1305 12.9877 -9.12808
1922 1 -2.81973 -0.177918 3.40076
176 1 -1.12633 12.3834 4.02256
1717 1 13.9063 1.53148 7.59299
206 1 -1.59533 12.7045 5.1083
1374 1 -1.545 -1.21962 6.25821
1818 1 -1.82587 2.29734 6.28436
1426 1 15.7746 15.1685 19.8601
537 1 15.1894 0.731899 6.721
191 1 14.4872 13.2414 -6.8622
1740 1 2.84078 14.7643 6.86839
1950 1 31.2576 -0.165942 19.462
838 1 4.11169 -0.293051 -6.23692
926 1 18.7446 13.6332 5.95046
1171 1 18.0054 0.53077 6.55978
1788 1 19.3438 14.1411 5.12009
1504 1 19.5686 1.5652 7.38563
607 1 33.4094 0.783165 6.07236
858 1 6.9757 13.8394 5.77408
508 1 8.09126 12.7533 21.1169
875 1 10.1468 1.13159 8.48629
363 1 9.39811 -0.812566 6.31482
269 1 -5.68264 1.37668 -5.64082
1187 1 22.4566 -0.221129 7.07737
1831 1 23.3216 1.79024 20.9342
1809 1 9.12482 -10.0123 5.73627
655 1 10.6253 13.9335 -6.78329
102 1 -1.03136 14.6918 -8.74604
558 1 11.1984 13.3066 5.45947
998 1 -1.80353 14.1458 5.30707
739 1 -0.333095 28.44 5.79526
410 1 -1.39737 13.9336 6.61626
961 1 -13.7904 15.5565 6.4476
1012 1 0.239545 16.3229 7.20964
703 1 15.92 -11.6447 7.43986
791 1 3.07409 3.17354 19.9726
372 1 -9.505 15.4734 -7.46715
1356 1 16.957 -13.2848 7.43543
519 1 4.17799 1.4062 7.24937
940 1 -7.77347 1.80068 6.30308
318 1 18.49 -12.7048 -7.96598
659 1 4.88712 28.7818 -5.74236
1836 1 19.4497 2.80311 8.25433
462 1 7.86376 14.1254 7.04217
718 1 7.9678 14.6922 19.8085
243 1 9.10043 1.47599 -7.49362
1970 1 -20.4929 0.895912 20.4981
466 1 9.70702 2.13062 8.18579
305 1 8.74728 1.99474 -6.01473
783 1 9.26755 -13.195 -7.28111
1432 1 11.4576 16.7585 -6.78176
1909 1 10.0254 -9.5849 5.26438
381 1 11.9985 3.43029 -7.64988
1214 1 26.3667 29.3913 19.421
1311 1 12.7968 -11.3365 7.10138
671 1 27.2037 4.06121 6.1549