ITEM: TIMESTEP
250000
ITEM: NUMBER OF ATOMS
2048
ITEM: BOX BOUNDS pp pp pp
0.0000000000000000e+00 1.3679807573413575e+01
0.0000000000000000e+00 1.3679807573413575e+01
0.0000000000000000e+00 1.3679807573413575e+01
ITEM: ATOMS id type xu yu zu
247 1 1.22832 -13.4007 15.0101
607 1 28.7793 1.23788 1.15915
771 1 14.4569 -13.0243 14.1432
927 1 -11.9453 0.911536 13.7846
1810 1 2.2313 0.603006 14.8736
1342 1 17.7419 -13.6771 28.117
1346 1 3.38137 -26.7977 -12.3897
1053 1 17.5192 1.00133 13.9541
1771 1 18.0306 14.9239 -12.4201
102 1 4.79392 28.2156 -27.2122
1039 1 -7.08159 13.9742 13.931
850 1 -7.12564 15.0704 27.543
732 1 21.0252 14.3949 14.5924
847 1 -21.0624 0.867831 14.8813
2035 1 -18.7407 1.45323 1.07262
1976 1 21.9956 27.8752 14.2887
1116 1 -3.29559 0.63381 0.425939
1626 1 -4.33219 -13.1632 14.4226
1874 1 -4.03797 -26.0344 13.7008
1985 1 -15.9239 1.19447 14.5906
719 1 -1.21163 14.6462 0.280037
214 1 13.367 0.538033 1.22908
1763 1 -13.8201 1.36822 13.9096
959 1 1.11462 29.3171 0.415673
622 1 0.436693 15.6462 1.25541
1202 1 13.825 2.94519 14.7218
1373 1 13.9354 16.163 27.488
288 1 15.3221 -11.3289 14.8561
1267 1 16.6589 15.3493 -13.1413
1052 1 15.7538 1.90231 0.0972065
1883 1 4.2023 2.35724 15.1758
5 1 3.89904 2.11576 -13.0656
1795 1 5.01667 1.87947 27.6174
846 1 19.5385 1.83942 1.02118
1500 1 5.63729 -10.6507 28.6745
1240 1 4.68013 -10.7598 0.709574
221 1 20.6494 16.1492 1.46808
2048 1 7.44342 16.4579 14.1852
870 1 -5.97719 -11.9136 0.768546
1649 1 21.9731 16.1533 27.4877
906 1 -4.43984 29.5151 14.3277
1454 1 10.6188 30.3892 0.403327
1443 1 10.1303 29.6403 28.7709
762 1 10.6553 28.9797 -13.1123
1928 1 -2.53108 16.1591 1.11644
985 1 26.2802 -11.7487 14.4237
651 1 12.9097 16.5816 -13.1654
368 1 14.8347 16.7427 0.420962
613 1 0.280347 -10.1256 -13.5637
1374 1 -26.671 -9.883 14.6561
454 1 -11.8742 31.2728 1.36973
139 1 2.96612 17.6236 -12.6485
1920 1 30.025 30.5102 27.8656
1467 1 31.0292 3.13715 14.6342
955 1 3.92418 -9.60083 -13.135
86 1 46.1209 -9.60376 14.0143
1816 1 19.0044 4.04625 1.45706
963 1 -6.40953 4.32412 28.0032
1064 1 7.57926 3.35551 1.40658
228 1 -7.12929 17.3461 1.51792
450 1 -21.1702 3.77208 0.454753
1890 1 -5.24438 -10.6173 0.998125
62 1 22.7463 -9.72065 0.839059
82 1 8.26215 3.85151 0.139622
1013 1 24.1548 30.7534 1.46646
255 1 10.0714 3.96965 0.637457
1423 1 -17.8751 3.13277 1.22526
643 1 -4.42804 -10.4985 0.181143
445 1 -2.56547 4.21215 -12.8555
12 1 -1.70127 17.4001 0.468015
1863 1 26.7698 3.89379 28.1178
1597 1 12.2522 -10.6041 1.31865
1989 1 -27.1715 -9.10046 0.246387
394 1 1.27009 4.58172 14.2193
2006 1 14.2957 19.4838 14.506
1089 1 14.2613 4.88376 28.7558
197 1 -11.1421 4.72394 13.7857
131 1 1.757 -8.09149 -27.0542
57 1 -11.5302 5.2019 1.20061
1421 1 2.78394 19.5036 14.3473
317 1 3.86169 -7.98563 0.632357
515 1 3.39151 4.86489 14.9483
466 1 4.66819 18.4844 1.02008
1738 1 4.9233 -8.24501 13.9255
1478 1 5.77415 18.5952 28.4411
8 1 -7.75844 5.65703 14.1036
1024 1 20.5667 5.30528 1.33321
1181 1 6.95547 -8.35768 14.0113
18 1 8.54704 18.5043 0.71965
1909 1 7.88433 -21.666 0.751362
1901 1 8.93959 5.95209 28.3429
407 1 9.76711 18.5696 14.5735
716 1 -4.50582 18.9962 0.07395
1426 1 23.8535 19.43 27.6232
478 1 23.8877 19.6587 14.9462
442 1 51.9058 5.17542 0.786117
1119 1 25.4808 19.5151 0.19669
1163 1 -2.10476 18.3125 13.751
1118 1 13.202 19.2032 0.426375
1021 1 25.9535 32.0279 -12.8553
686 1 -0.536717 32.2415 14.9238
1561 1 -1.09245 19.5947 14.9467
1762 1 1.23261 6.59721 -13.5373
1982 1 28.4719 7.23021 1.12921
1566 1 1.89259 6.46022 41.9891
397 1 2.7913 6.95431 14.6282
1030 1 2.29987 7.48879 0.238548
1458 1 3.79352 20.2825 14.8419
576 1 17.0371 6.52243 -13.6408
1949 1 18.0721 6.5691 0.143137
1217 1 -10.0708 7.47031 0.275454
1687 1 -8.5514 6.23812 41.8452
163 1 -9.10978 21.0297 0.875318
1022 1 20.8396 -7.12416 0.7942
490 1 -7.52351 20.32 -26.4786
1866 1 6.68726 -19.9228 27.6309
1650 1 7.72184 7.229 14.1178
1774 1 8.07088 20.3349 28.8223
1811 1 22.6286 -6.69656 13.8657
1088 1 -5.12971 21.2177 1.00847
1791 1 37.2993 34.1282 14.1893
1189 1 -17.8832 -6.57378 15.1195
1527 1 -2.71349 6.40064 0.616368
30 1 10.6825 -19.974 -12.8918
352 1 25.5525 20.2898 -12.4949
948 1 -1.98809 7.31819 27.6077
1084 1 12.6054 -7.17874 14.1075
409 1 40.9424 -7.17008 -12.7231
465 1 -0.266209 21.0693 0.193626
1205 1 12.5987 21.1839 14.4206
655 1 14.375 8.29859 -12.9964
1341 1 14.9789 9.01343 1.23549
1115 1 14.8924 -6.01155 13.6894
216 1 15.6595 21.7118 14.9398
31 1 16.5043 -5.44311 0.764973
2044 1 15.5089 35.7813 0.326091
740 1 4.08767 8.41979 14.2546
1445 1 -10.4299 22.7668 13.8817
81 1 19.2594 -5.53531 0.650814
714 1 -8.83829 7.98241 13.7145
1097 1 5.12309 21.8096 15.1812
1459 1 7.5507 -5.52208 28.4822
1726 1 -7.06687 49.4731 28.16
711 1 -6.3061 9.08571 15.1682
72 1 21.2045 -5.5503 -27.319
1381 1 -5.27041 -5.04218 0.245701
1304 1 9.68655 -19.2857 14.1714
1960 1 -3.15223 22.0997 14.6974
1167 1 -3.25005 9.0401 13.8213
1208 1 25.3306 7.78152 14.893
27 1 -1.85922 -5.31667 -13.3389
1846 1 -2.21264 22.745 14.822
863 1 12.8918 22.0665 13.834
257 1 -1.11187 8.46238 1.30407
451 1 -0.102586 -5.96929 1.26008
151 1 13.9271 9.15699 -26.3828
1503 1 28.8533 23.9991 14.8328
871 1 0.445713 10.1091 0.581315
411 1 15.003 -4.24335 0.181945
1701 1 2.54632 23.1245 0.849013
598 1 16.5475 -3.097 1.01012
563 1 4.45985 -18.1088 1.03385
1281 1 -9.9053 -17.3532 0.445347
1177 1 18.0742 -3.05914 14.7575
1784 1 5.81713 22.9477 14.1372
1908 1 19.6469 -16.7994 14.9194
130 1 5.15373 9.95479 -13.0945
922 1 20.8179 -17.237 1.17008
1416 1 6.15847 -17.7676 -12.2514
944 1 -6.58093 9.20911 0.307036
1323 1 7.5689 -3.06711 0.351493
645 1 20.032 -3.19695 -13.4365
1759 1 22.1706 23.4862 -13.2196
1673 1 -4.8574 -4.54287 14.7688
1893 1 8.14622 9.88859 15.1844
611 1 -4.14549 9.55228 0.134772
10 1 9.18219 -3.1866 -13.648
537 1 10.1952 10.2538 0.976991
301 1 22.8311 -3.53144 14.9184
1268 1 9.803 22.9688 1.0881
1707 1 12.0915 9.59014 0.335471
1171 1 11.0215 9.97192 0.447838
857 1 11.8796 -16.8872 1.01584
765 1 13.0802 9.4526 27.708
1814 1 -14.2482 10.452 14.5067
688 1 12.7467 -4.19449 1.3605
885 1 14.6964 25.0797 -12.2479
749 1 0.766401 -1.81991 13.8208
652 1 0.143927 11.4452 -12.978
265 1 0.978757 -16.4383 0.280806
1349 1 -11.7075 24.4082 13.7736
324 1 2.87038 -2.09689 -13.567
417 1 -11.617 11.2347 14.7175
1424 1 44.3487 -1.78996 1.0458
1927 1 -7.8262 -1.71198 1.11951
158 1 -8.47653 -2.63765 0.557175
1134 1 20.8212 -29.5954 1.37897
1173 1 -7.13289 -2.18398 14.1957
2 1 -5.21815 24.5134 14.5784
511 1 8.78247 -15.488 -13.3118
1757 1 -5.84294 -2.11295 -13.0439
572 1 -17.1234 10.8275 0.0197636
987 1 9.48791 11.1869 -12.8373
223 1 -3.02767 11.5492 -12.612
883 1 11.4036 -2.36156 13.9649
1599 1 40.6524 12.1473 28.6669
1702 1 -14.7562 -15.9679 41.7664
1430 1 27.8421 -0.356663 -13.2751
966 1 16.4755 13.3933 -13.0901
183 1 15.254 -14.0853 0.362861
824 1 16.1414 -1.29705 0.657987
570 1 29.1223 12.2563 1.41744
695 1 17.2982 26.6103 1.20023
1957 1 5.38971 -0.16605 0.216833
236 1 4.56695 -1.25733 1.00856
241 1 -8.2237 13.679 14.8694
100 1 5.72567 -1.48504 0.0150047
251 1 33.4332 -0.665297 0.683112
1451 1 6.79659 -1.31713 1.05601
161 1 -6.25447 13.3692 14.2748
1844 1 22.6887 -14.2031 13.9348
961 1 -5.8089 39.7779 13.7165
1083 1 21.8622 -1.21825 14.7296
637 1 -3.92537 -1.45178 0.530267
644 1 -3.52008 13.2263 14.1006
1590 1 -3.337 -0.0088422 1.36575
1942 1 9.28452 26.9842 1.35249
769 1 -2.43761 -27.6139 0.603414
818 1 24.4386 -1.47836 0.257301
1902 1 11.265 -1.24425 14.8324
1971 1 -1.40529 12.6061 -12.8734
395 1 -0.191943 12.5237 0.350874
1770 1 12.6157 -0.0720274 0.464676
1661 1 0.553265 14.7072 15.4985
715 1 0.379941 14.0326 2.93472
333 1 16.1692 0.427427 2.35647
1607 1 15.2784 1.05103 43.2532
1402 1 17.973 -13.4956 15.5215
904 1 -9.88004 0.574269 2.75887
123 1 19.1568 -26.5881 1.91806
1194 1 4.58663 28.6555 16.0637
996 1 -7.9137 15.015 2.92005
488 1 -7.37359 14.1266 2.62822
87 1 -6.31327 14.1189 16.0319
1456 1 6.87859 15.137 15.5318
1801 1 7.31183 14.9597 2.92652
888 1 35.6335 -13.33 1.60728
1741 1 7.82584 1.26698 29.1678
859 1 9.04675 -13.5341 16.107
344 1 22.1722 1.48976 -11.1199
764 1 -3.35452 28.6494 15.4683
1453 1 -18.1861 28.303 -11.8754
2021 1 -3.69479 14.0854 15.9017
1109 1 25.8338 14.8009 2.69266
836 1 11.7771 13.9946 2.94583
1170 1 11.3435 1.44908 2.14009
121 1 -3.03843 28.2083 2.93894
304 1 -16.08 14.034 15.4508
665 1 25.8693 0.823999 15.2019
786 1 26.8989 -13.1835 16.0018
67 1 1.25914 1.92473 15.5657
656 1 14.1218 15.7314 29.8061
722 1 15.1603 2.93102 16.3831
1851 1 2.33796 1.65173 1.92088
1715 1 2.43554 -11.2595 2.70502
505 1 29.1189 -11.9648 30.3725
1149 1 2.21699 2.92765 1.78306
540 1 3.77565 2.63094 2.46019
461 1 -10.073 15.3032 15.7232
275 1 16.8512 16.1103 -12.0493
65 1 5.35932 15.8245 15.555
1690 1 5.57313 2.42989 2.88683
1969 1 6.51223 29.5846 16.1888
1299 1 -5.59954 2.24121 15.2471
1111 1 21.4055 -24.9892 2.5121
1978 1 -4.90947 2.56714 16.5085
26 1 9.53543 1.79338 -10.9871
1835 1 -3.14203 1.87534 2.84079
1131 1 9.15788 2.2223 -12.0367
428 1 9.87555 30.3397 15.9547
246 1 -15.2132 15.957 -25.4725
1222 1 -2.73446 -11.2018 15.8709
174 1 13.0288 28.9148 15.5954
1043 1 -0.346964 2.60389 15.6662
342 1 14.8 -9.741 15.8878
1059 1 1.05047 3.09112 15.3129
347 1 27.5467 16.7781 2.86023
1565 1 2.50414 4.37676 43.0307
1284 1 -9.40615 3.51373 1.77782
891 1 17.7158 3.72042 2.7943
1457 1 3.7834 31.7392 15.812
52 1 16.8265 3.54211 1.9925
1085 1 5.16202 -9.51758 16.2511
1351 1 -22.2188 16.7955 15.9118
1589 1 7.01509 16.8347 -11.2995
33 1 -7.58953 3.56295 -11.1461
1474 1 20.0937 31.7539 3.01597
44 1 -6.64152 4.34877 2.14789
282 1 -5.82658 -9.24862 1.56409
1169 1 22.587 -9.34738 2.65784
179 1 8.71982 3.11308 1.97405
1354 1 7.90029 3.74799 16.1624
1691 1 -4.00102 4.02767 1.81866
435 1 -3.17607 3.7356 2.57981
1076 1 -17.9993 3.57976 3.03406
947 1 11.5261 3.58415 15.4375
1192 1 25.3675 4.23504 16.1132
1379 1 13.1079 17.6756 16.3448
1048 1 12.2455 3.27547 16.191
1564 1 12.5646 4.05701 15.4077
1409 1 -13.7318 3.67511 29.1376
589 1 1.50492 18.9915 -11.5027
1209 1 0.334257 5.82973 2.71405
877 1 14.0082 -9.05983 16.1452
1082 1 2.36701 -8.53409 16.5838
991 1 16.5764 19.539 1.76816
1697 1 -9.87472 5.4366 2.19222
534 1 -8.90322 -8.71054 -11.5371
539 1 4.65327 19.3289 -10.7468
536 1 5.7879 19.4863 15.3736
1529 1 -7.82611 4.7113 2.10565
1212 1 -6.19995 -22.3012 2.90747
458 1 -7.18 32.7598 2.35443
1515 1 22.6417 18.3541 1.64507
1634 1 -5.4442 19.138 29.2962
896 1 8.33332 -8.21382 2.98706
1542 1 -3.79114 5.19077 15.7507
1838 1 10.9192 4.69294 1.81836
812 1 -15.3058 -8.55948 15.3704
705 1 10.7934 5.20762 16.4049
1876 1 11.2883 19.5841 1.66531
844 1 12.1259 5.22892 2.92496
1135 1 -0.747518 5.07474 15.9581
2033 1 13.5777 19.3902 1.73797
2036 1 -12.4281 21.084 29.5451
1404 1 0.682326 -20.2777 16.5765
1635 1 13.9074 6.85667 15.5619
53 1 28.4826 6.29753 15.343
1123 1 2.02302 6.45816 -11.495
1531 1 -10.748 6.89612 2.12365
1675 1 17.5494 6.90885 2.52983
66 1 17.3228 -33.4686 1.57986
1962 1 5.7832 6.13063 2.79
1216 1 4.62896 -7.42074 1.84
755 1 4.9259 -6.93573 2.82811
1925 1 18.9672 34.4018 1.86144
1061 1 7.23317 -6.43736 1.66799
267 1 -6.35717 -7.57474 1.95044
389 1 20.1062 -7.09448 1.9694
170 1 20.7522 6.39458 -10.7268
2047 1 20.0852 21.2327 30.1422
1892 1 8.51342 7.31021 15.7384
69 1 7.6087 -6.55645 -11.0336
520 1 -4.59662 -34.8235 1.98265
1227 1 -19.1801 6.35766 16.1569
138 1 10.0596 6.17029 -11.0308
556 1 9.61681 7.20682 2.5003
527 1 24.1219 -6.84403 15.4662
1806 1 11.5024 -6.70371 15.8268
421 1 -2.60675 6.22923 2.75575
4 1 -14.4561 20.6387 -12.0502
1648 1 -1.45843 6.18457 2.36566
350 1 40.5143 -7.11895 -11.2415
1508 1 -12.9665 21.9331 1.69292
457 1 -13.1976 35.9362 2.96786
1632 1 28.8773 -19.3596 2.97183
1692 1 27.3761 35.1786 15.9846
1875 1 15.0734 -18.5977 2.29011
1110 1 29.9229 -4.973 15.6778
1703 1 -11.3484 7.73599 2.47348
1732 1 -10.075 49.6869 1.6037
1492 1 31.7733 -19.6571 15.9756
1375 1 3.43048 -19.0584 -11.0381
1658 1 4.31277 -4.77299 16.179
561 1 5.421 8.94913 2.16152
1919 1 33.4821 -19.4752 15.3248
761 1 20.8216 -5.39836 2.26205
1700 1 6.35665 -18.5323 29.3059
1498 1 6.95402 8.9457 3.03606
1921 1 -19.1506 8.39121 16.6304
1832 1 -5.49151 8.39135 1.92541
988 1 -16.9784 -5.8737 1.824
217 1 9.3824 21.9446 2.65991
593 1 9.4367 -5.45335 1.5322
1868 1 -3.35498 7.97276 2.89528
779 1 -2.2683 -5.46751 -11.5063
148 1 -0.362697 22.5595 29.3584
1720 1 25.8873 8.84128 2.2395
16 1 12.6057 7.81891 29.5983
1311 1 13.0911 -18.6357 30.3457
977 1 28.7079 23.7402 16.0741
101 1 0.602593 9.42599 -11.6067
882 1 15.9164 -3.774 15.416
1604 1 2.31785 23.7761 16.4469
699 1 16.913 -4.09856 15.266
1878 1 17.0783 -4.21486 43.8613
1944 1 17.7754 10.1727 -11.6333
1338 1 3.14868 -3.22803 15.8053
1252 1 5.14677 9.87193 15.4207
1203 1 5.03545 -3.69593 2.86331
1654 1 5.92742 -3.84174 2.45094
406 1 20.6372 -3.73249 -10.9258
447 1 21.3431 -3.14016 2.05077
1276 1 -5.76421 -17.9267 -11.2399
935 1 8.77926 -3.06118 2.09905
1260 1 -4.47527 22.8944 15.8705
338 1 9.97074 9.29101 16.6849
1815 1 23.4992 -3.64164 15.6418
1660 1 -3.11146 22.8041 -11.8344
1881 1 12.1463 23.7142 15.6335
1347 1 -16.1727 10.2708 15.3289
682 1 -2.32237 -4.02709 2.62672
326 1 -13.6866 10.1774 1.67869
1583 1 -0.596737 37.265 29.8144
865 1 0.386254 12.139 16.0532
753 1 -12.81 24.698 2.44798
283 1 29.2304 10.9547 2.03542
49 1 2.71228 -2.40317 2.93006
2043 1 16.2882 11.599 15.4514
595 1 31.0052 10.7476 16.715
1980 1 -9.89411 11.7543 16.2889
1644 1 4.15215 -2.12941 1.6708
798 1 5.36008 -2.38646 -11.8882
1266 1 4.76643 10.9746 2.9534
1538 1 -7.74464 12.0678 29.7607
107 1 19.4984 -2.86417 2.82228
1277 1 4.86751 -1.67403 16.4318
245 1 -6.48279 25.7587 2.1797
125 1 6.44135 11.2292 -11.5287
535 1 -6.22259 24.941 -10.7534
1545 1 8.16258 11.6191 15.4073
1953 1 -4.60466 12.1308 1.54428
1793 1 -5.48949 12.0357 30.0218
287 1 22.747 11.4977 -11.0942
238 1 9.82507 -2.34568 15.5089
1987 1 -17.0195 -1.58763 16.2537
263 1 11.8356 10.8447 2.49401
1790 1 11.5768 -2.31632 1.62499
1684 1 10.7368 11.0658 15.957
1993 1 -13.7482 25.0195 1.8679
1594 1 12.7638 -1.63587 2.1151
2005 1 -0.319331 11.0136 -10.7405
1437 1 12.6097 -16.3286 15.2915
1019 1 15.1228 -0.206104 15.9148
774 1 28.272 -0.747315 1.52266
1981 1 13.7218 13.4397 15.6526
289 1 28.0556 -14.2859 -24.5464
1469 1 1.46965 12.4352 2.43008
1576 1 2.72958 -1.28189 16.1411
363 1 15.9635 13.2035 1.63129
1647 1 4.27554 -0.843033 15.8977
760 1 3.22779 -0.344661 15.8649
1931 1 -22.1491 12.4388 15.4283
1244 1 5.34709 27.0454 2.32752
1197 1 6.45265 27.3332 1.61071
201 1 21.0179 -0.661984 1.65045
1915 1 20.4779 -0.609372 2.62388
1407 1 -3.42096 12.3001 42.5671
1066 1 23.0109 -14.7564 2.47447
98 1 -2.30418 -1.46928 2.40539
1511 1 10.9016 40.4634 -11.5085
376 1 25.7775 12.8365 30.1566
1725 1 12.6156 -0.267863 1.95872
116 1 13.2444 26.7177 2.73804
1776 1 28.3225 14.0826 31.5109
1964 1 0.0829745 0.883074 17.6231
1361 1 0.809985 -12.3825 3.26684
679 1 0.857692 15.139 -9.42404
361 1 15.775 1.44811 4.00835
911 1 16.5892 -13.5016 30.5698
1068 1 1.72296 0.525735 3.19255
1279 1 -10.9108 42.2635 16.7834
1434 1 15.8733 0.292598 4.11894
809 1 -23.2604 -13.3208 -9.83447
200 1 -10.4394 14.3806 -9.45911
512 1 18.7664 13.9013 3.24673
1894 1 -7.63981 0.69051 17.3397
75 1 -9.10346 1.26535 -10.1454
1646 1 6.97508 -13.4692 3.3067
1060 1 -20.2819 0.23062 -9.32563
916 1 -19.0998 27.8814 16.8724
552 1 -5.35756 0.0396699 4.425
835 1 -5.91941 -26.3 -9.64561
211 1 -4.31647 14.6254 -10.4114
634 1 10.5208 1.183 4.55269
1160 1 -3.52934 0.235826 17.5644
1620 1 -2.48153 0.735362 3.94313
1005 1 -0.455547 14.8512 30.4248
862 1 -1.47469 0.845423 3.84185
1624 1 -0.606297 0.128422 17.1296
1155 1 1.04685 16.0613 -10.0557
1428 1 14.4788 16.5958 4.55568
776 1 2.73912 16.1046 17.5328
629 1 4.52003 2.44295 3.04444
1031 1 -9.92337 1.61861 -24.3148
1775 1 17.3682 29.0492 31.4001
900 1 3.51128 -11.0823 4.53987
1840 1 5.09901 2.80135 -9.21252
648 1 19.2726 -11.9488 3.86566
757 1 4.65641 1.85986 -9.35108
1617 1 6.79297 2.14432 17.3205
1184 1 19.7869 3.03468 -9.8918
726 1 8.01242 15.8216 -10.0492
615 1 8.90011 -11.9335 17.3714
270 1 8.65932 -11.084 -9.15666
1035 1 9.47594 2.65706 3.72113
9 1 24.0595 16.6923 3.37141
178 1 25.0013 1.64487 -10.2203
1950 1 39.1235 -11.003 30.5633
1539 1 11.9522 2.30095 -9.37799
752 1 -2.82082 2.22647 -9.42044
1818 1 -1.00584 15.7755 -10.499
1796 1 -14.4843 1.646 4.09581
1935 1 13.6385 29.7709 17.3342
127 1 14.463 4.09139 16.9106
264 1 14.9948 30.9 -9.85883
564 1 -25.3562 4.20126 3.2642
1886 1 16.2294 30.9478 17.5213
351 1 17.236 3.08106 3.38075
133 1 -9.90445 17.6682 -9.77374
422 1 4.45302 4.55683 -24.1072
354 1 -8.90709 16.9114 17.2009
340 1 -8.23756 4.09045 3.66387
1104 1 20.4807 3.53077 -9.21829
1238 1 7.41201 3.34155 3.40803
588 1 -7.26142 4.3272 4.01758
1420 1 21.9989 -24.0995 17.4688
1929 1 -5.9926 31.6602 3.49524
799 1 -5.65274 4.05609 4.53307
525 1 -4.9985 18.0845 3.74134
1484 1 -3.27195 4.05897 3.71739
1326 1 -17.9123 17.2465 17.9371
1180 1 25.0124 3.63002 3.25767
71 1 -15.9113 17.2235 4.3956
356 1 24.4645 18.1199 18.2383
1329 1 -1.046 3.07413 -9.85617
1871 1 12.5334 4.14647 17.3115
671 1 27.2566 3.70349 3.61851
981 1 27.4625 19.502 -9.49861
1926 1 0.254689 4.82679 31.8701
492 1 14.3503 59.7856 3.49381
401 1 15.2439 18.4038 4.03933
1233 1 30.0057 -9.00058 -9.63098
20 1 1.97913 5.96615 17.0151
1536 1 2.14714 19.3238 -9.36116
244 1 -24.2851 5.88538 3.37031
93 1 3.34716 18.5267 -10.3859
425 1 3.22946 5.67068 -9.24907
162 1 4.06397 19.2278 -23.6104
47 1 3.79658 -8.84857 -9.2939
661 1 5.52404 32.2859 16.7764
1518 1 18.8414 33.1396 17.4764
1532 1 4.973 4.92611 31.5921
1221 1 19.7231 5.18489 17.9093
811 1 20.7196 -21.6381 3.70793
1672 1 -4.58754 5.61292 17.5846
1562 1 8.33324 -22.1918 31.725
1436 1 23.4891 4.83674 30.5772
1831 1 24.3045 -8.0733 17.3393
1628 1 -3.82441 4.92089 4.35622
1017 1 11.3441 32.1732 -10.0942
1127 1 -1.89736 5.71339 3.99328
708 1 -15.4209 4.71106 18.1051
1368 1 26.5596 -7.80159 30.5643
581 1 -0.309992 4.84654 16.8734
638 1 40.2974 -8.54067 -9.56073
2016 1 14.6457 7.38793 31.3692
1609 1 0.988218 6.36852 3.55794
706 1 2.85817 20.2597 -9.54032
1946 1 29.1677 20.6787 -10.4465
1476 1 1.75047 6.79779 4.4209
1475 1 -10.5092 7.18512 3.23467
22 1 -9.49786 -19.8454 17.1164
2009 1 -23.6417 6.91319 18.1719
594 1 4.08975 -7.11098 30.9485
1257 1 18.9428 21.1519 3.33575
1547 1 19.591 -20.5192 17.5885
929 1 -8.799 6.966 4.21114
1352 1 -6.29944 20.717 3.93496
357 1 8.06938 -7.38182 3.83043
136 1 22.6469 6.46021 -10.4714
1842 1 8.82894 7.49646 16.7745
1489 1 22.4161 -6.85699 4.55006
1862 1 23.7301 34.8935 17.6136
252 1 9.95884 6.5939 3.78768
343 1 24.8143 7.27444 3.08542
1737 1 -16.2588 -7.05549 3.86285
38 1 -0.00578196 7.05966 -9.29911
1750 1 39.6036 -6.70788 3.0721
704 1 13.5161 6.54308 3.42929
1179 1 12.6518 -7.19659 -9.38406
641 1 0.0518911 7.70896 17.1728
144 1 -27.2633 8.6967 3.89319
964 1 1.0383 8.66439 4.14117
1004 1 2.70614 8.70103 16.9397
1466 1 1.83344 -5.61709 18.2228
609 1 2.7184 -4.91133 -22.9686
2041 1 16.2929 7.80767 17.6793
816 1 17.4547 22.7553 4.3527
35 1 17.65 -32.4687 3.51528
262 1 3.66118 7.90348 -9.42474
1410 1 5.88862 8.2437 3.61203
924 1 18.6093 -4.72973 17.0222
467 1 7.23588 7.94559 -10.4288
700 1 6.61754 -4.86121 4.21234
1517 1 20.131 7.66916 18.109
1554 1 21.1303 -19.3061 -9.35339
1321 1 -5.30575 21.3315 17.7069
1336 1 -4.70421 8.52051 17.5889
1513 1 7.73191 9.04089 18.0984
386 1 -3.37784 -18.8169 17.5083
253 1 -1.52045 8.21264 3.1521
1860 1 12.1418 22.2817 17.9192
42 1 -16.3383 -5.11682 4.55541
1528 1 11.4241 21.3876 17.6632
443 1 -1.01319 35.0594 -9.77616
410 1 0.370088 23.2919 16.8536
387 1 1.32267 -3.42005 17.1069
2038 1 -13.162 9.55806 31.6697
1077 1 14.7372 -16.7857 4.3395
1232 1 15.264 22.8374 16.9601
1320 1 1.89923 9.45544 4.29058
530 1 30.2749 -3.86749 3.6358
504 1 45.0529 9.94185 3.6589
1843 1 18.8156 -3.52741 3.85951
1767 1 5.95566 9.35787 30.7537
547 1 -6.40613 -3.98224 3.74447
544 1 20.4913 -17.2241 4.47424
712 1 8.69982 -18.1153 16.7532
945 1 22.2397 9.6852 -9.50867
1611 1 9.03621 -3.51311 16.7299
11 1 -19.4283 -3.32407 3.1276
1235 1 10.5814 -3.48686 3.26588
805 1 -4.22251 23.8765 -9.37822
485 1 10.1723 -4.15764 17.7688
998 1 -16.0941 9.33795 3.59106
2000 1 11.3294 23.7813 4.50005
278 1 -0.504841 -17.7604 3.82413
489 1 -1.35585 9.68585 4.31906
1799 1 -1.05245 -16.9925 3.47618
1259 1 -1.47854 9.40224 16.9589
222 1 0.636001 11.1884 3.4894
874 1 28.8793 11.5921 -9.39157
884 1 13.8281 -1.98149 4.38853
39 1 15.3667 -2.26215 -10.5372
872 1 2.40927 -1.73361 4.09085
1582 1 2.33189 -2.95539 4.02539
1914 1 3.55901 11.1606 4.06003
1662 1 3.38084 12.0526 4.55007
1388 1 -22.8837 -1.67562 17.3622
426 1 3.4264 39.3698 3.51819
1616 1 -8.11026 -1.53214 3.45412
748 1 -8.44771 11.2538 3.89753
180 1 6.59837 -15.6159 -10.3654
132 1 20.2934 -2.97875 17.3264
623 1 21.1694 -15.6414 3.87447
546 1 -5.22777 -2.43782 17.1426
348 1 -5.74546 10.8094 -9.14332
1537 1 22.6077 -2.3911 4.48718
953 1 9.53925 -2.50394 3.5651
1674 1 -16.8551 -2.71422 17.9143
1333 1 10.3294 -1.67947 18.1522
649 1 11.6713 12.0679 30.8554
70 1 -2.24559 10.6684 3.63997
1328 1 -2.29214 11.5436 4.32968
196 1 -16.5579 -2.14632 -10.3084
1450 1 12.3334 11.3064 3.21306
723 1 -0.171959 -1.74774 -10.4402
910 1 27.2764 10.658 -9.64225
1249 1 12.8419 -2.11726 17.821
230 1 14.6844 12.261 17.0456
165 1 -12.0692 13.1228 -10.3833
1970 1 -38.336 -0.805301 30.8767
1940 1 15.484 13.1177 18.0772
59 1 2.85594 13.0444 -9.15171
659 1 3.68601 26.7392 3.22551
1206 1 4.04429 -0.667222 31.6455
597 1 6.00574 12.6275 4.29595
1888 1 5.4965 13.6201 17.9638
1073 1 5.96909 -0.53498 -10.2472
1337 1 4.98263 -0.719238 3.44964
1153 1 20.9262 -14.6086 -10.2432
1947 1 8.31558 -28.0657 3.26634
1510 1 8.45993 25.8586 17.9761
1961 1 9.04426 -1.37576 17.1794
328 1 9.58808 -14.3854 17.9469
1190 1 22.9468 -13.8962 -10.2986
1640 1 24.2214 -14.4218 3.82812
24 1 -2.83954 -0.165865 3.10889
168 1 11.6945 -0.0971324 3.89891
830 1 11.4032 -0.936047 18.1808
1490 1 -0.100098 26.5819 17.3233
1945 1 13.4354 13.6447 4.45802
334 1 -1.2 -0.957392 3.81719
789 1 0.862316 -26.2059 5.53649
1014 1 0.346988 0.564959 -8.69754
1627 1 -12.0886 -12.7248 4.81514
817 1 1.63073 0.05921 5.36149
1487 1 2.57772 14.0159 5.19795
1044 1 -9.76907 13.7484 19.0372
1440 1 17.6276 14.8266 4.98294
1781 1 3.30181 28.863 -7.77322
950 1 5.4881 28.4731 -22.5907
1164 1 18.3153 14.0501 4.68751
1418 1 -8.85183 14.3422 19.4094
1872 1 -7.28955 15.1757 18.2576
1006 1 -34.6849 27.8634 32.4099
767 1 7.20097 0.898629 -7.71533
296 1 -5.96716 1.22127 -8.68469
1075 1 22.3733 1.45733 4.79993
191 1 8.63941 1.32466 -7.82187
453 1 -19.4593 27.5407 -8.31447
330 1 8.92347 0.575312 5.13688
557 1 9.95287 1.27531 -8.16841
1910 1 37.2595 0.364542 18.6082
1095 1 11.4664 1.36099 4.97007
51 1 -15.3203 14.0275 5.4972
345 1 10.9387 14.3247 5.74257
143 1 -2.50421 -27.2499 -8.78808
2011 1 12.8033 28.1354 18.4981
1833 1 13.5269 15.1641 18.628
614 1 13.02 0.0270264 19.4219
751 1 0.782309 15.8457 -8.33742
1195 1 16.4687 15.2708 18.5264
1485 1 1.82789 2.98234 4.96084
1932 1 15.6589 -25.3897 18.9845
1072 1 2.90811 2.40182 5.55626
1207 1 4.33226 -11.4931 32.5423
833 1 3.74855 -10.6747 -8.25873
1151 1 31.7433 1.53486 5.99602
852 1 -21.6258 1.52248 5.75456
845 1 -7.8827 2.34936 -8.63742
1079 1 5.3439 -24.8289 -7.64305
115 1 6.82877 16.2183 32.0367
412 1 34.3927 2.90817 -7.64764
1283 1 20.3965 1.80314 19.2786
150 1 7.65358 15.8658 -22.0212
783 1 -5.98245 -24.3806 -8.88046
1534 1 -4.88541 16.0124 5.59784
146 1 9.71816 15.6432 4.57551
167 1 -3.04933 2.08507 5.21664
1147 1 -17.7827 -10.8105 18.8601
1162 1 24.032 2.76877 6.02301
1495 1 11.5902 15.4508 -7.75922
295 1 -2.27334 16.42 5.46138
1049 1 -14.7512 -25.7648 5.48433
1007 1 -1.29048 2.96443 -8.66229
60 1 27.2661 2.90318 18.909
592 1 -13.8658 15.8899 -7.66198
1516 1 14.806 31.862 5.89029
1211 1 27.4226 -10.0112 33.2317
32 1 14.994 3.41437 -7.74624
1952 1 14.2103 -9.93054 32.4418
43 1 15.8991 -9.50955 5.71939
1371 1 3.01656 -10.0851 -8.77955
1718 1 15.5703 -9.7079 18.459
1365 1 16.4555 3.3648 6.01973
741 1 4.34225 17.3818 18.5042
1256 1 -10.1563 4.12357 -8.01307
475 1 5.36773 3.899 4.73165
2034 1 5.62889 31.2609 5.70247
1345 1 4.65972 3.58668 19.4428
838 1 -7.30349 -10.4706 -8.37279
129 1 20.9817 3.7877 5.37531
1107 1 20.1218 -9.25693 18.8618
713 1 21.6541 30.4248 -7.80761
491 1 -4.97428 17.1933 -22.038
1986 1 8.89759 4.40647 4.75631
1857 1 -3.75515 -9.14686 19.0201
1248 1 10.5766 17.8834 19.7255
1245 1 9.47304 3.96848 19.7552
1012 1 10.4755 3.40531 -8.53327
1112 1 -2.12153 3.76983 -8.30916
3 1 -1.16837 -10.0354 5.91295
601 1 13.0812 17.7577 -9.09887
1786 1 13.9315 18.5061 19.3134
2001 1 14.684 -21.609 4.5717
194 1 -12.0465 -7.66145 32.7997
192 1 16.538 18.4143 4.98283
226 1 -11.9676 18.721 -8.51295
232 1 16.2643 19.3935 -8.39347
237 1 -11.0794 -8.55066 -7.60036
173 1 4.33985 18.3508 -8.29536
616 1 3.62385 5.43132 -8.16677
84 1 4.34502 5.60767 4.7256
56 1 -9.32676 19.7513 -7.77075
821 1 5.17566 19.143 5.44685
1063 1 20.8527 4.83132 -9.10482
1912 1 21.1541 5.84862 4.8636
315 1 21.1762 5.83754 5.87241
1869 1 6.40639 19.0701 19.014
1533 1 20.8124 18.5215 33.1734
1548 1 -18.4486 -35.9282 -8.19527
946 1 -19.3611 18.3549 5.31133
1651 1 24.2161 5.39657 33.071
1062 1 -4.11351 5.89615 18.654
1716 1 24.4102 -21.3726 4.79873
1618 1 -2.19251 19.6427 32.976
735 1 -15.7865 4.9225 5.41402
658 1 12.5875 5.72922 -8.35901
1262 1 -0.0473823 -7.78694 18.9177
212 1 -0.794924 -8.93124 -8.31016
1711 1 28.0665 6.85178 18.8245
1332 1 15.4107 7.19151 18.9706
367 1 16.3465 20.5404 5.13765
1481 1 3.52068 20.2502 5.64067
1113 1 3.8688 21.2106 5.37187
189 1 19.2383 7.17318 -8.61192
1183 1 -22.795 -6.85576 18.8336
1468 1 19.1716 6.13529 18.4049
1924 1 -8.40594 6.49675 5.89097
605 1 6.70584 20.2601 18.3815
1756 1 21.2064 20.6985 -8.61054
960 1 20.3298 47.5764 19.6675
718 1 7.73255 20.4426 19.7046
1008 1 22.0526 6.18348 5.26706
55 1 22.2152 7.34027 -8.14237
828 1 -3.33803 6.94176 4.95877
1922 1 -3.12317 6.45569 5.88154
463 1 9.61836 6.88336 5.55718
680 1 -2.31843 -6.45303 18.9378
1805 1 25.3988 6.42198 4.62899
1688 1 12.8843 6.96331 18.803
908 1 12.192 6.71045 -7.70464
1316 1 1.38836 -4.76674 5.0305
1913 1 14.2298 8.10346 18.5464
1847 1 13.8312 8.45641 19.6829
1312 1 1.22341 8.12603 19.5092
788 1 15.8064 -5.22363 5.44978
1995 1 -10.6572 21.667 5.04775
1743 1 17.9614 8.41418 5.73893
1958 1 -8.91029 21.4771 -8.78486
1431 1 5.65523 21.9583 18.5285
284 1 19.1127 -19.3701 19.4952
1898 1 5.32896 9.04239 -8.11625
259 1 -8.88201 36.2097 -8.94842
1585 1 20.7317 8.74465 32.6235
1903 1 -7.27565 7.60116 19.1396
1596 1 19.9885 8.70985 -7.63325
747 1 -6.12576 7.79742 5.84207
1269 1 8.16904 22.1293 18.8955
1317 1 9.29524 7.75525 4.74399
327 1 -3.18987 7.92174 5.09267
1018 1 9.18178 35.4217 5.73182
495 1 23.6514 8.70939 5.45689
559 1 25.709 -5.95785 4.80812
1348 1 11.4248 -5.23207 19.1427
775 1 12.1108 7.85838 19.7249
684 1 -0.530601 22.6248 -8.99952
1573 1 12.5359 -18.8026 -8.39765
1787 1 -0.428215 7.88375 -8.57664
907 1 27.6884 -4.32827 5.30925
1102 1 14.8994 9.93852 18.8685
15 1 15.038 -16.8491 19.7589
1168 1 -13.1638 10.6303 -8.33946
926 1 16.6536 22.9282 -8.46493
566 1 15.9353 -3.54666 -8.80893
1828 1 1.98376 9.48444 5.67065
166 1 -11.2674 -3.0794 19.6152
323 1 4.43723 9.69369 18.6916
2014 1 17.3331 23.8166 18.3413
631 1 5.27664 10.232 -8.28066
1768 1 -8.01143 -4.07125 4.67646
650 1 -7.29025 -4.11616 5.50159
1577 1 -7.25377 -3.11035 19.5503
858 1 -4.82383 23.8376 5.20117
239 1 -5.94784 9.66641 5.3725
1117 1 9.37907 9.29726 4.7253
1677 1 -4.54477 9.22729 5.83504
503 1 -3.81233 9.94999 -8.29147
1603 1 -2.32672 23.8404 32.918
551 1 -1.49383 -4.11015 5.2722
120 1 12.3457 10.3898 -7.85098
1223 1 -0.262272 -3.65761 4.8705
277 1 -0.594538 9.36386 5.62573
153 1 0.959993 11.7333 -8.50442
1422 1 2.80494 11.0277 18.6018
235 1 1.69495 24.623 -8.50881
1382 1 4.39166 -1.92095 -8.80735
596 1 -9.57913 10.7595 5.5742
1575 1 -23.2947 -1.75499 5.95372
1398 1 18.2586 -3.02514 4.59963
903 1 -7.64721 10.7836 4.8266
954 1 5.19671 11.337 -8.60609
1058 1 -20.6002 12.1441 19.2742
1558 1 20.1702 -1.84896 18.3572
1486 1 -6.52765 -2.72766 5.27377
1464 1 -5.58996 10.6837 32.9754
1255 1 -19.6442 -1.94051 18.8005
1054 1 22.6561 -2.1755 5.71348
524 1 -4.17593 -16.6938 -7.69636
1580 1 37.279 10.922 5.0062
294 1 -3.04024 25.7559 19.593
975 1 -2.65799 -2.4971 32.5552
941 1 -1.48894 -2.99335 18.4916
1093 1 -0.53739 -2.70318 18.7149
577 1 12.2668 -2.33815 -8.00652
717 1 13.5738 11.8954 19.1255
1204 1 14.4521 -0.97038 18.2881
1230 1 0.20686 12.9157 19.2111
1867 1 -12.2465 12.6203 -7.99322
113 1 15.7574 25.9286 5.0231
730 1 16.1794 40.1989 -7.68284
621 1 3.18334 -1.47375 5.4636
868 1 4.02141 12.7759 32.5939
413 1 19.1818 12.174 5.44081
523 1 18.643 12.6945 31.9963
292 1 -8.87933 12.6508 19.6499
1509 1 -8.22272 13.3324 -8.33312
851 1 6.68125 13.1888 -22.3188
1802 1 7.745 12.7854 18.2756
1133 1 -18.7137 -14.8282 5.5433
2027 1 7.77591 -1.1543 -7.76926
1638 1 23.1125 25.8647 32.2938
1664 1 23.0854 13.1753 5.37855
681 1 10.3966 -14.5956 5.1514
543 1 11.5895 -15.0169 5.49736
1408 1 10.9548 -0.395633 19.6771
1000 1 -0.27775 26.2269 18.3355
390 1 -1.36634 -1.45282 4.6002
1185 1 -14.899 -0.194043 -8.95565
2030 1 12.725 -1.2016 5.68101
276 1 1.20374 -12.8805 -7.15887
218 1 13.7044 14.9415 6.23285
772 1 0.0684734 0.55161 21.0363
1314 1 -13.2562 13.9039 -7.57967
1504 1 16.3458 0.669571 20.9983
1369 1 2.28373 0.162806 6.3599
186 1 29.6231 -12.4527 -7.36862
487 1 -9.92979 0.630373 -20.6963
1724 1 16.8653 15.0953 6.99656
1154 1 5.14439 15.1875 20.4853
1639 1 32.6032 0.637682 21.0531
538 1 6.56553 27.7884 7.24244
1740 1 6.12764 0.126773 19.9235
1377 1 -6.52557 -12.2261 7.3328
1200 1 -6.17172 0.0903859 7.39649
1287 1 8.17689 0.585735 6.63222
1800 1 21.9359 -12.6516 7.51065
399 1 -17.8984 14.4085 -7.42985
2020 1 -3.39987 14.2576 20.5133
1727 1 9.60465 1.31223 7.13227
1033 1 -15.7553 28.2221 -20.8051
1460 1 10.7343 1.27597 7.38129
2004 1 -14.4416 0.995798 34.2736
1731 1 -12.3324 29.2382 19.8773
940 1 14.5393 1.60473 20.7911
746 1 -26.8704 2.56231 7.42138
1186 1 0.654817 2.68424 6.23851
199 1 2.02992 -11.0441 -7.35083
754 1 15.8321 15.4712 -20.2518
1141 1 16.8811 2.43713 -7.10369
1247 1 4.40526 2.41573 20.2731
378 1 4.22199 -12.0238 7.43209