ITEM: TIMESTEP
80000
ITEM: NUMBER OF ATOMS
2048
ITEM: BOX BOUNDS pp pp pp
0.0000000000000000e+00 1.3679807573413575e+01
0.0000000000000000e+00 1.3679807573413575e+01
0.0000000000000000e+00 1.3679807573413575e+01
ITEM: ATOMS id type xu yu zu
1482 1 0.636047 1.6049 0.898083
215 1 1.67834 14.0778 0.520464
1435 1 3.05712 15.068 1.01274
394 1 1.7428 14.0875 1.62374
1389 1 -9.78184 14.3494 1.70757
1279 1 3.64522 27.9929 0.399233
458 1 -7.21331 13.8514 0.480036
1888 1 5.22114 1.29729 13.1474
1898 1 4.08112 15.3416 0.32631
1135 1 5.42768 -1.60662 15.3857
1298 1 4.73355 -12.2395 15.8744
1548 1 6.28777 -12.5585 13.3893
988 1 7.51874 13.6464 0.127879
640 1 21.5554 -11.585 14.2906
1855 1 22.0555 1.30952 13.6566
1202 1 20.7846 14.0316 15.093
746 1 -4.82445 14.1248 0.538845
1776 1 10.2953 14.4042 15.499
1621 1 -3.3627 -14.4849 15.2656
1608 1 -1.72675 0.284491 13.4669
1147 1 -4.0053 12.8529 14.4821
1454 1 11.235 13.7286 15.3354
830 1 10.1061 1.57935 1.11977
907 1 12.8801 13.465 13.8786
1000 1 -0.715828 15.5366 13.9804
1015 1 -0.343903 15.1277 1.44611
741 1 1.36504 15.8816 13.9468
37 1 -0.310323 2.93491 -15.2534
1583 1 1.91096 17.1005 13.6325
434 1 2.01996 1.34193 14.5192
1186 1 2.36389 2.60911 14.2536
880 1 17.233 16.5534 0.514306
850 1 4.68553 0.618755 14.0272
1094 1 4.83102 14.5597 14.9895
21 1 2.98061 -11.7507 0.0763943
479 1 7.0482 15.2906 1.26086
1874 1 5.07924 1.62147 27.8712
401 1 6.75839 16.2392 0.565103
1377 1 -8.89986 16.4207 14.1178
77 1 8.04406 1.99458 -0.736896
1375 1 9.2093 -11.943 0.402904
1793 1 9.78817 0.373021 14.5963
1965 1 7.28137 15.6149 15.9753
854 1 9.24218 3.5111 1.21588
965 1 -3.5622 14.9147 -0.021731
1499 1 37.2624 2.6896 14.8292
1242 1 12.2661 0.875141 15.2999
621 1 12.3175 0.996302 0.350375
302 1 -2.50134 1.12066 0.634957
1735 1 -1.35705 3.09812 14.5026
1156 1 -1.82709 15.8397 0.296798
336 1 12.1725 17.3292 13.4274
1744 1 0.4473 2.68787 14.1956
2041 1 14.0812 3.71767 13.8484
1728 1 15.1821 4.37964 16.7779
733 1 15.5216 17.2308 -1.18561
1258 1 -12.7043 3.74537 2.44711
666 1 1.60321 3.15316 -11.9879
327 1 3.5453 4.1227 -0.27199
631 1 3.85651 16.0501 -0.396855
1599 1 17.4891 5.11209 15.4672
1266 1 4.87913 4.33337 1.29571
808 1 5.14856 3.12497 1.53605
31 1 5.04587 3.69037 0.365904
1652 1 -5.71909 3.81247 1.50129
1551 1 7.42148 2.93563 14.8766
106 1 7.64105 4.64002 0.640991
1929 1 6.19638 3.37077 -0.0398939
799 1 7.40799 3.46761 0.330282
727 1 8.70906 3.2162 0.334864
1841 1 9.76213 3.08266 2.04583
1641 1 10.4081 2.00758 15.7328
845 1 9.35276 17.3384 -0.54566
1588 1 -2.58311 -9.85635 1.15754
132 1 10.4147 18.7127 1.76548
256 1 13.2148 17.3984 0.752908
1229 1 11.6179 4.89302 13.5401
814 1 -1.50666 -9.43493 -12.9937
1737 1 0.449093 3.82492 12.6759
311 1 14.8614 4.68107 0.50882
1736 1 2.54247 5.76405 12.7271
263 1 18.7656 4.67762 0.13791
1997 1 3.1541 4.43553 14.8275
1401 1 19.0299 4.05874 13.1469
1319 1 5.90273 -9.40736 0.703678
1274 1 18.4956 5.78854 -0.20602
926 1 18.8351 19.0421 0.830594
1281 1 -6.34632 -6.4805 0.313973
1496 1 8.63675 7.32696 14.7965
1887 1 22.1195 6.32282 14.1061
573 1 23.0855 -8.72191 15.7083
894 1 10.4984 5.68064 13.3538
1916 1 12.8546 -8.31629 15.7173
1824 1 11.1649 5.8188 14.2566
1065 1 -2.51328 6.76094 -0.118054
1432 1 12.2597 19.0307 0.91125
1122 1 12.8488 4.57187 13.5956
1024 1 12.1526 20.1752 0.767779
1938 1 0.944361 7.14182 16.1148
1999 1 15.2111 -7.30408 26.9259
933 1 2.05521 5.86105 0.989569
898 1 5.35846 6.72892 14.0341
438 1 16.628 6.51115 1.16147
429 1 2.22359 4.80065 0.883444
825 1 17.5598 7.49421 0.174395
972 1 -9.74272 22.0509 11.742
1032 1 -9.70887 6.24729 1.55574
470 1 6.80033 6.57651 1.43599
1698 1 -8.00525 6.33219 14.9141
1971 1 6.63468 6.55566 0.441274
1359 1 5.88139 6.57859 13.2021
1861 1 7.55423 7.983 13.4129
351 1 6.78864 -5.17403 1.67568
1113 1 6.74559 22.4222 13.7472
533 1 8.55517 -5.76023 0.141533
1422 1 -4.54523 8.20841 15.6312
1292 1 10.9421 6.74905 28.2916
249 1 9.43541 21.5643 0.680686
920 1 11.0886 7.71957 -0.628944
923 1 13.5366 7.17621 15.3898
1771 1 13.8548 20.1614 0.682851
504 1 26.6816 6.82857 0.165707
1921 1 -1.01858 7.72546 15.6507
166 1 -1.70568 -8.11745 16.2501
431 1 1.00236 6.75976 0.351939
289 1 13.0015 6.39939 -12.3652
1414 1 1.89158 20.5317 1.66235
588 1 3.21287 6.32401 13.5432
694 1 1.70054 7.94063 0.587869
294 1 -9.34333 8.36368 15.2308
1205 1 3.42339 8.95254 14.8833
1368 1 19.8339 7.78007 13.747
157 1 18.3906 7.57586 -0.571124
483 1 5.24792 9.69447 -1.01904
1398 1 6.7172 7.73017 14.7163
1120 1 18.6043 -5.64074 12.0226
1038 1 7.61938 -5.28331 0.857321
1143 1 6.2016 9.52252 0.548713
1856 1 8.08702 10.125 13.1391
1169 1 8.68182 9.87211 1.045
934 1 6.25514 9.3714 1.55164
642 1 8.02199 9.12575 -1.06938
1148 1 9.87176 22.4062 1.37637
1907 1 10.4007 21.4099 1.30833
1311 1 9.93626 -4.95523 13.6788
198 1 -18.302 22.9313 0.325417
1826 1 -1.62624 8.59478 13.7404
1360 1 -0.800151 -5.81662 0.742515
1413 1 -0.602249 21.5121 -1.64912
1549 1 13.0717 -4.6826 28.0418
925 1 13.7265 8.25603 -12.2029
1317 1 0.0468548 -3.88818 13.0156
650 1 2.33303 9.23385 0.295356
1177 1 14.0487 9.51719 15.0472
841 1 -12.346 8.65066 0.0263903
1805 1 15.7226 6.74861 0.305629
1889 1 4.12544 22.1465 14.0758
1738 1 3.50333 10.1686 14.7468
1190 1 5.27436 9.12843 14.63
1854 1 31.7546 -17.7314 0.512414
853 1 16.7173 -3.14703 -0.126817
1137 1 5.39204 24.809 12.6638
298 1 6.24997 9.75681 -0.536453
1429 1 5.38283 -3.6058 1.47125
111 1 4.23461 10.5592 -12.0135
1844 1 6.58963 -3.28937 14.6204
954 1 7.9091 10.1596 0.44252
396 1 5.80365 11.1785 1.04651
999 1 6.30289 10.1603 2.40597
449 1 10.1775 9.68835 14.3668
1996 1 7.67979 25.2738 13.3307
1203 1 10.8864 9.68 1.6274
1624 1 9.15434 -3.60259 13.3672
1802 1 10.7847 10.4571 14.1165
581 1 -1.33085 10.0441 14.459
1411 1 0.0628661 -6.10485 13.9953
860 1 13.3967 10.0534 0.570155
1895 1 0.950227 -2.73221 0.537825
763 1 14.1612 10.594 1.49327
1055 1 15.4845 -4.93768 1.34459
1988 1 1.38632 10.1785 14.6028
1455 1 2.5904 9.72375 1.34751
524 1 3.44375 -0.684162 0.674418
929 1 2.09197 -2.6205 0.581843
1340 1 4.41113 11.0744 27.0266
1591 1 3.09345 -1.68083 0.559889
1532 1 5.29086 9.73271 13.6213
1492 1 18.5539 -3.18167 14.397
1868 1 4.23667 -1.53184 0.134057
1146 1 5.09084 25.7634 12.2633
1987 1 -7.17052 11.9045 14.8865
1253 1 6.68177 12.0166 -0.432905
397 1 7.28321 -3.54241 1.87862
487 1 -7.05606 11.4157 0.348538
1622 1 -5.27729 9.92677 16.0424
8 1 -5.93123 11.4937 0.746855
1581 1 10.9213 -2.22797 14.5813
160 1 25.9333 11.5643 3.10546
1511 1 10.4239 24.2288 1.48296
1114 1 0.0163241 -2.15931 1.71274
1345 1 -0.931943 -2.6883 14.3986
1300 1 12.9776 -4.05967 1.56727
566 1 13.7248 -0.574757 0.672445
347 1 13.4295 12.5963 15.2487
1273 1 -0.0684853 11.5571 0.574605
1700 1 1.5674 -0.635854 28.316
122 1 13.9452 12.4213 2.53935
1714 1 16.3792 -1.26783 15.1584
1026 1 -12.9329 -1.50643 0.525667
123 1 17.1993 -0.316076 1.91566
241 1 4.21869 13.1186 -0.164669
1883 1 18.0635 13.3133 14.6472
1619 1 5.37199 -0.7727 -0.363397
468 1 4.09006 12.0228 -12.3844
1860 1 5.89554 14.2884 12.5224
1458 1 5.4632 11.7701 13.7164
1680 1 -8.19549 13.7621 14.7742
1129 1 6.25424 -0.952678 0.409008
1600 1 7.78467 -1.20785 14.9571
1684 1 6.87831 -0.630948 14.9956
461 1 -4.17515 11.6536 3.53329
877 1 9.06241 13.1389 1.63864
1009 1 8.98511 11.9207 14.9335
822 1 -3.01991 13.1695 2.51362
1563 1 23.5346 -15.0522 2.6176
3 1 -1.89195 -1.60945 2.29889
1673 1 -1.68693 -2.33424 1.46489
536 1 -2.20656 12.559 1.46389
1808 1 13.1821 1.10717 2.61068
1467 1 14.5403 -0.159785 13.9113
1626 1 12.6785 -15.2943 14.6562
1764 1 -13.0814 14.1295 1.05805
179 1 14.3631 14.3464 3.04459
982 1 0.706521 13.2052 1.6159
1766 1 3.09118 15.9904 3.38876
1503 1 32.1275 13.9389 15.8938
1385 1 4.32661 0.711964 3.15307
1396 1 4.8546 12.8884 15.4967
1327 1 5.93419 0.519975 1.95567
210 1 20.5869 12.6855 -10.3125
1875 1 19.7504 1.35468 1.07683
1849 1 6.34133 -1.27717 2.27198
1179 1 9.17743 1.04465 -12.1952
216 1 8.19203 13.2791 2.75487
1525 1 8.03055 13.3306 15.3203
515 1 -5.60168 1.29828 16.1736
1538 1 10.1104 0.348725 16.5178
976 1 -0.532029 0.41944 1.15973
1969 1 11.1955 1.68276 16.5671
33 1 -0.130481 1.15183 3.57726
575 1 11.233 0.624626 16.3466
19 1 -1.1527 -0.429562 1.5069
144 1 -1.29257 1.88188 1.33934
1097 1 -1.51369 15.0783 16.3062
125 1 14.0373 2.30222 -11.8349
638 1 28.0906 0.707846 1.97067
326 1 -14.1556 2.88841 0.1107
931 1 -0.447552 16.2184 1.1015
1181 1 4.21513 17.6664 15.5824
1064 1 2.57311 2.26518 1.62636
1355 1 1.55769 1.88871 15.4246
602 1 15.799 2.16474 3.67283
225 1 -12.5277 1.55974 2.57239
703 1 16.871 -12.3458 2.28173
1534 1 3.5058 16.148 2.33735
1772 1 5.93644 1.93659 2.15414
531 1 7.65901 3.3239 2.33739
786 1 20.3604 -10.9152 -11.7981
328 1 -5.29633 2.86733 15.0167
227 1 -6.24068 15.352 17.1639
945 1 22.7758 15.7658 1.5093
1030 1 8.54678 2.80252 3.9382
1541 1 7.55864 0.345378 2.29982
245 1 9.48718 16.1264 2.72924
1932 1 11.9463 3.48498 15.6576
1244 1 11.6542 15.6772 1.9822
380 1 11.0558 1.31157 1.73258
2029 1 13.7821 2.85948 2.64793
805 1 12.8277 2.27427 2.28167
126 1 26.7107 2.10941 3.33994
413 1 14.8404 2.67887 2.86907
2013 1 15.4459 17.0291 3.17636
1365 1 16.8981 4.28428 2.41823
142 1 2.11865 2.26065 2.59469
1782 1 4.93139 19.3087 15.495
86 1 30.2728 -10.3802 1.2558
815 1 4.09796 2.9015 1.48497
1577 1 -7.89824 -8.76079 15.2582
597 1 19.5858 2.44111 1.18311
1838 1 5.90906 3.75303 1.78253
500 1 7.37132 4.8399 -12.0673
759 1 6.80585 3.98322 14.7688
36 1 6.78053 3.72135 2.69372
601 1 8.64935 4.33912 1.06465
1749 1 9.00803 17.7109 2.15392
630 1 11.185 -9.61962 15.74
1960 1 -5.09661 16.758 2.90526
543 1 8.85398 -7.97629 16.273
918 1 12.3885 18.2796 1.65357
1823 1 9.76209 18.0031 17.8195
824 1 12.0007 2.38609 3.03965
1613 1 13.341 18.0195 15.2681
645 1 0.255192 -10.2311 1.60846
1958 1 -0.774194 3.31572 15.4536
2011 1 14.4443 19.8067 16.085
1644 1 14.8788 5.31582 15.2119
1862 1 14.8079 17.7666 15.1376
1880 1 2.04744 4.33745 2.01185
1623 1 16.4024 -8.35723 15.4512
2020 1 2.50114 17.7187 17.1466
1933 1 3.84327 4.93874 14.0051
893 1 17.6274 -7.57795 3.66343
466 1 5.81881 5.81914 2.07939
611 1 4.8485 7.29008 1.69674
1920 1 18.1248 6.64869 16.0945
2006 1 7.15442 5.75988 13.798
455 1 -6.04374 7.45764 1.39255
1294 1 -7.01649 6.22232 2.36383
27 1 5.88566 -6.80054 -11.5022
1012 1 8.3981 18.9663 1.30615
1814 1 8.30551 6.50535 16.7275
527 1 8.12287 -7.24244 1.49235
766 1 8.92691 20.4187 2.10232
93 1 24.1153 18.4685 2.88285
872 1 10.0842 -9.66813 2.15013
782 1 9.18552 6.02919 15.0647
2027 1 9.94141 6.30324 2.40974
1943 1 -2.79795 5.84736 16.4469
1818 1 11.3832 5.62825 15.3953
1998 1 -2.14294 4.67427 16.5404
870 1 -13.4744 5.71536 15.1135
379 1 -0.843837 5.59795 3.45283
1390 1 26.4065 4.516 16.4145
35 1 1.77063 -7.85362 2.13448
751 1 15.8124 7.05835 2.71622
620 1 13.6555 5.4192 16.4042
345 1 17.7309 7.61826 2.23291
554 1 16.7063 -5.79488 2.80113
344 1 16.8292 -7.09864 2.18037
284 1 16.7693 -7.03301 3.23073
426 1 4.01085 20.9888 1.11602
425 1 3.99887 6.95684 -9.51867
1910 1 18.8548 7.24241 17.7153
444 1 -8.20021 7.37698 3.03112
153 1 5.90358 7.94862 -11.4463
1320 1 4.8983 6.3795 4.66641
307 1 6.77703 -6.22101 15.7267
605 1 7.50374 6.74372 2.26564
2047 1 9.29962 20.4199 16.9659
794 1 10.3212 -7.01852 16.9498
1408 1 8.71227 7.51773 16.4775
840 1 10.0092 7.62462 15.9986
498 1 12.1388 20.3202 1.8596
1540 1 -3.4106 -7.63054 15.0004
1313 1 -2.10271 21.3078 1.414
1543 1 -1.74048 -7.00397 3.02105
341 1 -0.723614 7.02514 -10.7519
1523 1 14.0436 7.93534 16.0542
1632 1 14.5059 -5.45416 3.25411
218 1 1.08746 7.64067 1.44007
662 1 3.07295 21.6014 15.3675
1295 1 17.3158 -3.99844 15.6855
1646 1 3.56358 -5.02564 -11.2201
813 1 -8.72601 8.33733 3.91921
1752 1 5.25072 -5.75775 14.2855
161 1 4.74491 8.57406 2.82464
108 1 4.28456 7.46972 16.9577
252 1 7.30759 21.6397 3.63993
1158 1 21.7181 8.0423 2.01316
2040 1 6.13691 8.44596 14.6017
684 1 8.67295 22.3002 1.09436
2044 1 8.57346 22.641 2.41423
332 1 8.08103 8.51959 3.21441
313 1 23.6084 8.99444 2.35541
1477 1 10.6084 8.36192 16.7798
595 1 24.5924 6.6207 15.6378
1058 1 -0.597692 8.63682 16.3033
113 1 11.9776 7.47491 14.037
1957 1 -1.25127 7.47398 4.04234
1002 1 14.2131 20.9378 17.0664
1828 1 -0.105681 9.56269 2.36622
1283 1 -1.38261 -5.06482 1.32813
882 1 15.3795 8.02278 2.36477
156 1 15.239 9.90775 1.96834
859 1 17.5942 -2.52468 14.4501
770 1 0.875766 -4.83562 15.8783
54 1 16.089 8.65877 -11.4981
59 1 5.28994 9.93532 -11.16
676 1 -8.29849 22.5872 15.7825
1234 1 4.60576 9.5578 1.71378
1251 1 -8.38001 10.9307 15.5917
729 1 6.19792 9.01926 16.3836
280 1 7.20991 8.22698 2.61308
1095 1 9.59148 9.84764 15.4941
1704 1 7.71401 -4.71148 15.4782
1239 1 23.5238 10.9028 14.3896
679 1 9.21076 10.6916 2.67805
1882 1 24.5955 8.57245 15.7713
1374 1 -3.44885 -3.09923 2.75364
672 1 10.9212 8.6465 14.4736
1343 1 11.3087 10.6203 2.21924
851 1 12.2393 10.448 2.02084
320 1 -1.69251 9.40252 1.9645
793 1 14.0611 9.3037 3.24811
2014 1 13.2936 10.5223 15.7936
321 1 -0.627432 -4.58381 3.71212
1590 1 2.08146 -2.90556 1.81126
864 1 14.1346 -2.34812 2.79654
114 1 16.6417 11.2243 1.40364
268 1 14.6049 -1.9871 1.92205
935 1 18.5095 11.5227 0.830443
1144 1 4.08762 -1.04966 2.4344
688 1 1.614 12.496 2.95399
172 1 6.14387 11.7699 3.14134
606 1 19.5302 10.7169 -0.238749
481 1 -7.69299 10.3779 4.42545
272 1 -7.27816 -2.5286 1.88333
342 1 7.64461 -3.5213 3.0452
932 1 -4.07018 10.619 3.8535
1858 1 9.35592 -2.7872 15.3453
942 1 10.6262 -2.25346 2.31527
998 1 -3.03384 11.461 3.50829
888 1 25.3394 -1.36125 3.57128
398 1 -0.878637 11.4721 2.20278
1666 1 -2.21868 24.0698 14.8599
392 1 0.652897 10.1587 2.52828
874 1 12.6143 10.5946 2.97514
1167 1 -14.6825 -0.966191 2.36757
1760 1 12.6264 12.7085 17.0726
1487 1 -0.263578 13.7891 15.7499
1925 1 -0.0616374 13.4399 3.17795
271 1 0.848058 -1.47445 -10.11
691 1 2.26274 1.21697 1.90599
334 1 1.83046 11.7441 1.26471
1424 1 16.3412 13.6809 1.23918
803 1 3.28194 -1.84689 2.20575
1512 1 2.62792 -1.04353 16.4817
1175 1 7.41752 12.8342 2.28837
1029 1 4.98739 -13.1643 17.6224
1460 1 18.9569 12.7704 14.5483
2045 1 18.9742 12.4706 2.89712
1007 1 5.59034 0.274362 -0.151693
1109 1 7.25842 -2.45947 2.78881
816 1 6.56527 -2.50396 4.0364
895 1 22.0895 -1.42846 2.09011
1102 1 7.35232 -1.92486 15.6544
1753 1 8.35447 11.4167 2.73244
1509 1 7.70174 12.0956 3.13014
1021 1 8.756 14.1557 2.44852
975 1 10.4539 12.4411 17.6857
858 1 8.44256 11.6744 3.74856
596 1 -2.87814 12.2961 3.00442
534 1 -4.35138 -0.393157 2.90264
829 1 11.3595 13.4416 3.36211
255 1 11.6786 -0.570724 2.43932
102 1 -1.38536 14.0751 -11.1608
1638 1 0.877372 15.1202 17.3851
1528 1 0.694496 15.9198 18.7229
1948 1 14.6952 16.2088 31.3103
386 1 -13.2322 0.411785 3.98265
1977 1 2.01661 13.0495 29.2965
940 1 -11.4969 1.27401 3.22422
1767 1 1.57588 13.8649 17.2109
1254 1 0.922039 13.3581 2.60551
482 1 3.99364 15.3501 2.90373
767 1 4.89793 15.9315 2.99752
1798 1 4.56946 -0.50699 3.43195
1277 1 19.0348 13.6117 16.6612
785 1 17.7642 -12.5583 4.38169
1510 1 19.3059 14.1828 5.04689
674 1 6.54399 13.4492 2.36319
316 1 19.0431 1.2392 -10.5355
356 1 6.36565 0.650403 16.8741
56 1 7.22273 13.472 3.76345
1357 1 8.60701 14.9194 4.14898
1299 1 7.24941 1.19503 18.0043
1136 1 7.29718 2.33373 4.74739
1561 1 -2.1443 0.765162 17.2574
1130 1 9.08672 0.77687 5.06173
1303 1 21.6494 14.2454 3.44549
1524 1 10.6593 15.3603 3.90822
1859 1 -1.03508 1.17461 17.3582
301 1 13.575 15.6041 17.9456
1427 1 -0.499584 0.978173 4.60166
1904 1 -1.00213 16.8355 16.788
644 1 0.385583 2.03001 16.7613
652 1 1.83148 2.78779 -9.17039
287 1 16.988 1.07541 3.43122
796 1 1.62708 -13.4004 4.72552
195 1 -11.0554 0.689441 4.25748
939 1 2.54643 13.921 2.27903
174 1 4.04702 16.4302 3.56215
795 1 18.167 4.40742 -9.65052
1001 1 4.4505 15.6458 3.8992
868 1 -8.74449 1.40297 18.5469
842 1 5.60816 2.06657 -9.8515
617 1 6.49937 1.80409 3.02203
756 1 6.22344 17.3273 3.85141
974 1 5.00689 15.8369 1.58602
707 1 6.68203 14.7373 2.26451
1127 1 -8.04869 4.2323 2.70073
291 1 -7.7803 2.89561 2.64765
743 1 -4.04342 15.5054 3.56624
657 1 -4.24444 17.3082 3.02228
1221 1 8.41821 16.1384 2.20772
547 1 -5.21279 1.9374 3.21008
1757 1 10.2465 1.3406 2.8608
636 1 10.8054 16.7836 2.0247
204 1 -3.61277 16.2694 4.21605
779 1 10.3162 2.10328 -8.56417
2022 1 13.5139 16.5577 17.4361
135 1 -14.9833 16.5 17.7619
148 1 -2.40609 16.3274 3.61752
1596 1 14.5369 3.60857 17.2178
1835 1 0.901009 4.35032 4.66489
497 1 0.480761 18.3432 2.09427
901 1 16.1983 17.1105 -11.3103
1103 1 17.4005 4.19005 4.75349
783 1 4.81005 -8.90957 -11.3658
1077 1 17.2529 -7.91945 2.65433
1329 1 4.85381 3.16935 16.2051
116 1 7.55066 19.2357 2.72926
385 1 -7.36243 19.45 4.1592
1324 1 -6.51385 5.19576 -8.88406
1982 1 5.76964 5.43496 16.747
293 1 -7.23434 4.44769 4.67806
653 1 -5.72789 4.30707 2.53008
1089 1 -4.67433 4.55435 16.8531
264 1 6.66529 4.78078 3.24558
1522 1 8.86522 17.3736 3.93009
1769 1 7.26676 30.0135 16.6783
890 1 -3.89488 3.50077 4.74588
117 1 11.5036 3.48753 -10.7053
1488 1 -3.25783 2.8891 2.99117
1197 1 13.6942 18.4052 14.2423
821 1 -0.906993 18.5527 4.40297
1979 1 0.493425 4.60196 17.2423
1573 1 1.33426 5.68968 3.20669
1877 1 -0.0999428 3.98803 16.5158
1615 1 0.952668 5.44543 18.0846
82 1 2.32158 -8.75717 2.73145
693 1 1.76074 -7.47828 -9.22815
551 1 2.30883 6.07549 2.99372
1149 1 2.93074 4.69044 4.38416
849 1 16.7024 -8.25173 3.61948
1157 1 2.98291 6.19856 4.41548
1215 1 18.5063 6.50146 3.3146
1373 1 4.69733 -8.1102 16.6177
546 1 -9.88709 5.30677 4.4021
1659 1 3.84877 6.35218 5.0798
105 1 6.63176 5.07707 0.902156
910 1 6.79922 7.13813 -10.6688
1727 1 8.0363 5.82505 3.88336
891 1 21.5021 18.4996 17.2791
1643 1 8.05418 -9.37316 4.4061
1833 1 9.7989 18.8452 18.367
181 1 10.0254 19.3936 3.59661
806 1 -4.81904 4.89001 4.1311
1451 1 10.0313 4.40887 5.529
1568 1 11.4579 3.24671 18.2275
176 1 -2.95275 18.6557 4.07388
242 1 11.7098 4.18547 -9.44858
1112 1 -1.38362 6.17228 4.05549
1116 1 -0.0149172 5.42722 4.12742
1025 1 0.106747 6.34232 3.2109
41 1 -0.307909 -6.65789 4.24139
432 1 1.41241 20.5274 3.57144
1465 1 16.0431 6.98367 3.69509
520 1 3.12405 -6.43056 4.95135
545 1 4.43248 9.22797 4.19569
790 1 5.61747 9.1432 -9.38557
1075 1 4.11784 21.6767 4.45553
1832 1 -8.70669 7.51013 32.4981
820 1 8.59469 7.38817 17.534
1110 1 22.6829 6.15845 17.845
1601 1 -3.76345 6.73486 17.998
827 1 7.31169 -7.52323 18.2327
958 1 11.1856 5.9808 3.71947
701 1 23.4051 6.99932 15.0065
367 1 10.5416 5.81093 4.74513
589 1 9.73157 20.6162 5.29531
519 1 -2.3119 -6.32464 3.93252
604 1 11.9316 5.12513 17.3409
1352 1 -1.5351 8.35647 5.62913
452 1 13.2575 20.0314 2.33553
1984 1 11.4929 -7.06198 18.3628
348 1 -0.195304 8.02188 3.62041
92 1 15.4126 9.2175 -10.508
2026 1 1.57159 -5.05517 17.7986
471 1 0.912818 9.03042 -8.55681
1092 1 -11.9934 -5.88104 17.2188
1803 1 4.06717 -6.23484 5.56728
1903 1 2.80196 9.75036 18.0892
612 1 3.81764 8.6462 3.49359
892 1 4.85575 10.143 17.4868
128 1 18.0949 9.47153 3.06857
1263 1 5.37964 9.25946 3.24544
1625 1 4.50245 8.69213 5.14044
558 1 6.45716 21.1339 3.98249
1495 1 6.37402 21.9929 -10.3321
1853 1 6.21291 8.99982 18.8571
6 1 7.04965 -5.27416 5.554
775 1 7.03957 8.08818 20.3342
1031 1 -6.11667 -6.71609 3.89523
1255 1 -4.09299 8.20137 16.8264
275 1 9.18488 8.84551 3.75977
1410 1 11.141 7.60371 2.66272
1647 1 9.89202 8.68297 4.44054
303 1 -3.54632 8.56848 -8.12538
1817 1 11.3825 -4.33471 2.77476
1409 1 -1.24891 9.40807 5.31373
714 1 -1.55358 9.28441 17.8592
1665 1 0.520105 8.65489 4.2067
1639 1 12.7175 8.47178 18.2829
1440 1 15.9814 10.1591 3.29402
1722 1 28.9266 9.66621 4.70389
390 1 3.17039 9.36556 3.00585
11 1 2.36451 -5.18181 3.2753
735 1 3.5143 10.4716 2.72707
1091 1 3.62285 9.09985 4.9695
1033 1 4.31976 11.5473 2.203
1264 1 3.18105 24.5463 3.71821
374 1 18.2084 10.6449 -10.8968
542 1 6.4267 -4.08522 3.82977
1682 1 8.02739 9.80052 17.7885
713 1 7.54641 24.5723 -9.91278
1228 1 -2.9059 8.10155 4.37395
1627 1 8.27288 -3.89694 5.30062
290 1 -6.2669 9.14405 17.5668
149 1 -5.37873 8.91022 -9.01285
1959 1 -2.97127 22.9585 3.51607
185 1 9.69577 9.67573 3.13799
941 1 10.0864 9.74126 4.33051
1040 1 8.68321 -4.07016 3.30777
1433 1 10.7259 -3.23768 17.5396
832 1 12.0306 8.37921 2.43613
1607 1 0.962303 10.1393 30.9826
309 1 13.5974 -3.22076 3.20372
1278 1 0.445015 11.0606 3.82931
1267 1 2.79805 10.4978 -8.46887
532 1 15.6882 10.4812 4.37126
1642 1 0.977525 -2.77588 -8.95034
720 1 2.67073 10.0005 2.39575
758 1 15.0988 11.0988 3.33094
956 1 2.48626 24.8296 2.6757
1701 1 3.63993 11.8319 3.22314
899 1 -10.361 12.0044 31.7901
1341 1 18.4705 11.6206 3.12494
1927 1 5.61152 10.7355 3.03069
1442 1 4.41494 11.2037 17.8281
2021 1 -6.50419 9.3652 16.4156
258 1 6.7063 10.4515 -10.3366
1475 1 -6.28489 12.9008 4.65081
1017 1 7.25234 23.8761 4.61048
952 1 8.60432 10.5809 -9.84658
143 1 9.23871 -1.20662 4.07015
1901 1 9.19674 11.3964 18.3869
1096 1 11.8993 -0.976809 5.28828
1995 1 -2.69027 12.2869 5.50636
1271 1 11.4681 11.4738 17.8122
1891 1 -3.377 10.8562 4.79233
544 1 13.2377 -1.77604 -10.6521
526 1 -0.810771 -2.46762 3.85459
1951 1 14.2045 9.61921 18.0655
299 1 13.0744 13.774 -9.66142
1526 1 1.11505 -0.685466 17.9129
1099 1 16.3635 -0.813916 4.28934
673 1 17.5521 12.8005 5.00034
2024 1 0.956926 12.3597 18.8565
1819 1 2.56613 -1.76394 17.2284
1259 1 3.71557 13.6237 2.91167
1873 1 5.48259 11.4075 17.9275
175 1 5.06305 -0.65231 4.44457
1214 1 19.5883 26.1913 19.4567
580 1 5.24595 12.0284 5.22574
1796 1 5.84124 12.5964 3.69977
1452 1 19.8972 13.5846 3.89567
1566 1 6.28702 -2.48782 18.7516
1261 1 8.12649 12.8699 3.80834
800 1 7.91535 0.367783 4.44979
1436 1 8.69506 12.4455 16.7276
715 1 9.35835 15.1181 2.36821
1159 1 -4.57882 -12.6724 3.27128
1692 1 10.9891 14.2954 18.087
410 1 -3.46542 13.2834 3.52186
739 1 -1.60896 27.2252 4.08315
1150 1 11.9762 14.6456 4.5439
1466 1 13.5133 -1.07635 17.6181
963 1 0.709729 14.7868 18.4209
838 1 0.724282 0.738151 -6.14789
488 1 -0.138484 15.3133 5.3657
1290 1 2.72003 0.196092 3.2727
382 1 15.0473 0.723987 5.87232
1018 1 15.1362 15.0392 6.80547
230 1 4.61511 0.233214 4.86352
506 1 5.07898 14.7196 5.91951
579 1 17.8715 2.3015 5.0043
1790 1 5.26837 13.2617 20.8163
162 1 5.98554 0.201321 -5.95058
593 1 5.94495 -0.570791 4.934
1072 1 6.89174 -0.183169 7.40646
1586 1 -5.58677 1.10289 19.0083
1896 1 8.12599 2.29392 19.0939
389 1 6.84881 -0.555139 5.53928
1200 1 6.41705 1.71857 4.20654
1884 1 9.9344 14.9472 18.3337
747 1 -3.67676 0.615237 3.93085
324 1 -6.19977 14.3672 -7.37105
1748 1 9.82133 13.4054 4.6326
38 1 9.14963 1.36497 -6.6022
330 1 11.3208 2.15611 4.64692
1388 1 -4.71469 1.81503 5.8429
911 1 11.7652 0.15437 18.9636
1293 1 12.3819 15.5293 4.50098
1593 1 14.0377 1.86337 20.4869
171 1 0.518523 16.9147 4.7381
505 1 14.5772 1.59179 19.4948
1531 1 15.2255 1.78059 4.5015
1939 1 3.4347 1.92566 17.9897
1743 1 2.74909 16.1816 4.98947
1350 1 -10.6816 -0.123211 18.5661
259 1 -7.96144 4.78174 -9.67851
1778 1 17.1481 17.6676 3.66806
1223 1 5.28174 3.16811 3.58277
1515 1 3.6548 16.7499 4.63931
462 1 5.37922 17.3855 4.56253
811 1 5.35504 -11.1349 4.79696
702 1 20.3627 32.4421 2.33222
1420 1 19.4771 -11.8653 5.3866
980 1 6.25781 16.5879 -8.30499
1407 1 22.2771 2.23938 20.8641
647 1 -7.37988 2.7183 4.33665
1871 1 8.82005 0.854974 19.8979
193 1 -2.54895 2.43925 -7.93804
138 1 10.8568 2.2667 -6.85923
1287 1 -1.53371 2.67612 5.27267
213 1 11.9506 2.43248 -7.35021
1603 1 -0.973704 3.05625 19.7658
1640 1 15.3402 3.87145 4.12061
1777 1 14.5072 17.5947 19.2309
1656 1 1.68525 -7.96656 5.74234
209 1 18.0492 17.7056 -10.6667
1689 1 17.3435 5.26357 19.1226
261 1 4.42212 5.21599 6.50251
1381 1 -9.78791 4.9109 16.9635
1500 1 4.47675 4.40898 19.0331
1376 1 4.42699 3.38896 5.27979
1337 1 18.5077 5.43418 4.02831
417 1 -6.83244 16.5884 6.1932
1762 1 -6.2191 18.12 -8.2991
818 1 7.65265 3.57564 3.39398
229 1 -5.97104 17.1795 -7.99509
110 1 20.5597 5.25656 -7.53236
774 1 9.48245 -9.99754 19.7134
170 1 7.20232 3.65724 -9.20634
1810 1 9.13001 2.15251 18.3707
1046 1 -5.14764 -10.5877 4.96286
717 1 10.6278 16.8134 18.826
997 1 10.821 30.9315 3.74698
1733 1 -1.98974 17.4062 5.6751
484 1 -2.8304 4.06307 4.78154
646 1 -1.20869 3.91749 18.5229
1284 1 -0.302984 -9.67584 4.12042
420 1 -0.735695 19.5652 -8.82325
274 1 2.03898 -8.53057 -9.67209
1981 1 14.1085 5.53562 19.2021
14 1 1.93142 -9.07723 4.91275
182 1 16.2971 3.15192 -9.80087
1746 1 14.2293 6.53108 6.32768
1240 1 2.38355 3.626 6.13578
852 1 -10.7522 6.00641 6.71255
1527 1 5.50918 3.87947 5.60706
1315 1 -8.89403 5.44321 5.18455
1612 1 -7.01765 3.76805 19.2856
879 1 5.83109 6.47088 3.68067
109 1 20.0192 -8.30669 5.3213
97 1 -3.64398 5.61386 5.71435
501 1 -4.76725 17.7681 -8.70916
643 1 -5.5488 5.16252 4.94111
509 1 10.4512 19.5681 7.00178
1545 1 10.0463 20.3985 6.67427
454 1 -4.22988 18.5451 6.46707
1346 1 -2.07341 -8.16104 4.57352
430 1 -2.02748 18.6556 5.49912
276 1 -0.319189 3.57814 -8.18747
1219 1 12.7944 6.94597 5.13759
637 1 -0.454109 6.86482 6.401
1648 1 14.7208 6.67972 18.9831
1555 1 13.6478 -5.7853 4.73027
1342 1 14.3468 -7.03575 17.9812
1088 1 2.46712 20.578 6.92863
1514 1 2.66021 5.42064 4.9726
1108 1 17.2896 -5.30254 6.09382
1418 1 3.20299 20.5818 19.7222
391 1 4.62088 -7.092 5.68393
1457 1 5.6776 19.7398 19.8335
791 1 6.85914 6.13093 17.0478
1519 1 5.89232 20.4671 18.3529
668 1 4.3755 7.90756 6.61254
523 1 8.82707 7.2069 18.5823
1397 1 8.72196 6.61757 19.5724
750 1 8.23989 6.27304 4.87115
1484 1 -2.56571 8.3205 5.54218
1250 1 9.19287 6.05029 20.3899
1530 1 10.0064 22.8519 6.53881
1226 1 9.25905 7.55459 6.09034
1815 1 10.9828 6.45854 19.328
835 1 -15.9708 -5.96637 -7.15434
244 1 -1.65948 7.31695 5.72806
1718 1 25.6461 6.00171 19.0986
1013 1 13.0995 21.516 5.72767
810 1 1.36504 7.69813 6.59316
375 1 15.2966 8.21908 5.39217
1950 1 28.9238 -3.31988 19.2678
955 1 1.51804 6.75693 -7.39654
134 1 2.25373 8.96925 -8.7641
1516 1 0.951409 7.72104 4.31799
2042 1 16.1466 22.1581 20.0896
660 1 2.87325 8.15618 -8.25808
1023 1 16.6938 21.9227 4.36837
22 1 3.64108 -3.74691 3.84234
1020 1 3.19601 21.412 6.96206
370 1 19.5582 8.14208 4.4359
1328 1 4.1372 9.39725 5.86405
921 1 5.22223 8.36256 5.71388
2039 1 5.24528 9.61446 18.9043
2017 1 -6.81491 22.01 18.1045
704 1 20.9493 7.13624 5.15588
772 1 -5.81965 7.96138 18.2215
1480 1 -4.14307 21.437 17.8055
1894 1 -4.25669 -5.13966 20.846
1497 1 9.22812 21.8234 5.06808
424 1 -3.23677 9.49008 5.52822
1207 1 10.4409 9.16596 21.2569
337 1 -1.91765 21.6143 -8.95881
1241 1 13.5934 9.14626 19.3817
400 1 0.372299 10.2489 5.3628
1918 1 12.7671 10.0536 3.92168
1485 1 2.25048 10.9996 6.03968
140 1 14.9016 24.6262 6.46782
1747 1 17.2177 10.8568 4.62109
1539 1 2.45269 9.81064 6.23906
1086 1 15.3618 -4.44874 5.77365
1761 1 4.69786 10.3108 19.6662
1897 1 6.79787 -4.40987 6.12739
98 1 -6.40933 -4.38831 4.937
107 1 6.48565 10.0956 -8.3717
1184 1 7.71196 -4.88194 6.24809
1637 1 7.52703 9.82459 6.69766
1985 1 -5.21923 9.09147 20.8736
371 1 -5.2386 10.4997 6.16027
25 1 9.37036 -4.3948 -8.3467
1176 1 9.0118 -1.04667 19.6453
1168 1 8.73835 9.34567 6.18781
408 1 25.4681 8.42214 -10.2075
1837 1 -1.77524 -5.18574 20.5497
305 1 11.1539 9.17386 -9.0242
513 1 12.2208 -17.6912 6.28792
2036 1 -2.463 10.1629 18.5716
1758 1 14.5673 11.5826 5.72482
1542 1 2.55219 -2.30488 4.48209
1811 1 2.02215 -1.95281 5.3405
1706 1 3.06808 11.6932 6.50257
1404 1 3.34434 -3.01924 6.07108
938 1 17.9584 12.046 5.67453
863 1 17.1753 -1.05793 -6.62289
1048 1 3.14465 -1.93754 5.46081
224 1 5.24892 10.8709 5.13911
576 1 4.11597 -2.59086 5.3545
689 1 4.99181 11.3531 6.04811
196 1 -19.8836 10.2987 -8.05714
1768 1 -6.31237 12.1774 19.431
178 1 8.27306 -2.74163 -8.77216
75 1 -4.53895 10.1527 4.7636
1947 1 8.92675 -0.0401477 17.3778
1961 1 9.22281 -2.47299 19.458
917 1 8.21497 -1.53957 4.58365
1869 1 11.6018 24.9205 19.8547
184 1 12.0594 10.4252 5.52357
2009 1 -4.03919 12.4853 5.21328
682 1 -1.7569 10.4475 4.26948
359 1 11.6411 -3.38599 3.27649
1104 1 13.6789 -2.0876 -8.91682
2000 1 11.9855 11.6474 5.38089
512 1 13.865 14.3171 5.67915
517 1 0.0333041 -0.792101 4.93684
456 1 1.76532 12.2026 4.36802
1275 1 4.39396 12.9376 20.1746
1380 1 2.02292 -0.810411 5.19299
415 1 14.6711 13.399 5.57251
1664 1 17.1938 12.7798 -7.71762
1935 1 16.9931 12.8518 17.2039
1946 1 31.3094 13.7961 5.7063
13 1 3.86094 0.139036 3.91695
317 1 4.36768 -1.38252 4.06494
169 1 -8.88123 -0.633358 5.57542
190 1 6.52771 12.176 4.80475
737 1 -6.38109 11.929 17.7768
2016 1 6.8413 13.9248 18.37
1651 1 8.28198 -1.79599 19.1856
119 1 7.29522 11.2719 -8.71833
463 1 7.39499 12.9281 6.48841
1720 1 8.67641 13.0157 4.82338
368 1 8.86307 13.7129 7.3507
1850 1 12.509 -1.08101 18.1588
1846 1 9.42891 -0.0597173 5.73303
1217 1 -2.6092 12.9967 4.46876
966 1 -0.954527 13.8817 5.09616
1123 1 -3.25135 0.111246 -8.27707
1754 1 12.1812 15.2055 5.5544
1751 1 13.1489 28.3202 6.51342
836 1 15.3596 12.7939 7.2113
903 1 -0.116159 0.638342 22.4048
977 1 14.331 13.9561 6.58978
177 1 1.39043 1.92584 7.71631
959 1 14.6817 14.4235 8.46572
1653 1 1.85041 0.102862 6.83515
1712 1 4.01051 14.949 5.36504
675 1 2.67717 14.7875 -8.47465
753 1 2.499 14.9848 6.79798
1182 1 17.1493 14.5999 7.30008
1107 1 19.2144 13.5364 19.7546
2028 1 4.60444 16.1334 6.96256
503 1 -8.64539 13.9204 8.03703
89 1 5.1824 1.38032 8.09216
331 1 7.16161 1.70066 -8.05262
839 1 6.80421 0.518758 5.6654
460 1 7.59382 1.79817 7.6141
924 1 7.84178 -0.0386814 5.42894
1650 1 8.28028 14.6287 7.35189
1967 1 10.6274 13.7822 7.73832
1056 1 11.0844 1.33569 5.18041
1125 1 -1.74682 1.99879 21.1497
608 1 10.7895 14.4041 6.56526
247 1 11.5579 15.2578 8.69293
1976 1 15.5108 2.88972 19.2551
538 1 1.23484 16.0448 6.47831
1936 1 0.232443 1.6389 21.8937
1905 1 16.0364 0.592499 7.51591
1725 1 15.8814 -11.3514 7.02884
2032 1 18.334 15.6495 5.91
492 1 3.59244 30.2768 5.80787
1691 1 3.03709 2.01148 5.92582
781 1 17.0439 -12.7987 6.04775
29 1 18.9603 2.90263 5.86179
366 1 4.33682 15.1334 -6.96209
412 1 19.2264 2.31323 -5.82656
403 1 5.57252 14.291 6.86971
437 1 5.39182 1.66171 6.79933
406 1 7.83128 -0.0790002 -5.95656
20 1 6.54259 1.83894 6.81515
496 1 -4.15033 15.9305 20.4419
970 1 10.5732 1.70211 6.0502
1347 1 -2.533 1.22912 7.64827
1955 1 -2.16745 1.42631 6.43615
1041 1 -2.58825 -11.3639 7.94487
464 1 -1.46781 14.6493 7.07693
1679 1 12.4828 17.4562 6.79227
310 1 12.6243 17.9752 5.89932
1445 1 -1.1175 16.4256 7.24158
1081 1 14.3929 17.0808 6.75088
205 1 -12.7195 19.1012 6.43973