ITEM: TIMESTEP
160000
ITEM: NUMBER OF ATOMS
2048
ITEM: BOX BOUNDS pp pp pp
0.0000000000000000e+00 1.3679807573413575e+01
0.0000000000000000e+00 1.3679807573413575e+01
0.0000000000000000e+00 1.3679807573413575e+01
ITEM: ATOMS id type xu yu zu
596 1 0.268355 15.0452 -1.13923
1945 1 14.5077 1.19734 1.80496
1057 1 1.77111 -12.3675 14.6531
523 1 16.4031 13.5656 27.8991
1047 1 18.2362 0.319895 14.8175
1188 1 -10.8132 0.64386 15.02
416 1 2.3267 28.3665 -0.697631
932 1 -9.59856 13.7289 2.11171
1259 1 4.10689 14.7312 13.9757
1843 1 19.4994 -0.818886 14.7096
766 1 5.6662 14.633 2.80699
689 1 5.70528 13.4479 0.0612347
1361 1 6.48044 -13.7236 0.870441
1835 1 -5.97806 1.61109 0.294645
1631 1 20.9929 0.165 -12.2196
788 1 21.2189 2.11241 14.9931
1839 1 10.3422 -11.4788 15.7587
1813 1 -5.09942 -0.624839 1.2268
1174 1 10.3079 1.18356 14.1089
449 1 -2.18868 1.15876 14.6436
1287 1 -1.22744 1.49908 15.1397
84 1 11.8426 2.3904 1.02922
1565 1 12.4381 0.624686 28.2629
1564 1 13.024 14.9256 16.143
774 1 13.3267 0.547569 12.9714
530 1 13.884 0.662656 16.3148
307 1 0.545206 1.11825 13.5191
245 1 0.69636 15.9181 0.632411
212 1 1.15996 -11.5306 -12.0979
32 1 16.5315 -10.5408 1.19295
127 1 15.5913 14.0539 0.0792315
1792 1 3.06286 26.4433 16.1334
482 1 3.41621 17.8693 1.24176
621 1 2.81944 1.26239 14.1324
1976 1 18.916 14.8671 14.3459
704 1 18.0769 3.42188 1.31976
795 1 5.27712 -12.0299 1.83176
280 1 6.47267 16.4029 1.01562
1014 1 6.50457 2.80175 -0.674301
98 1 -7.8571 2.44581 0.0222559
886 1 6.39475 15.3564 -13.1409
1802 1 7.33842 16.7808 16.0688
190 1 -5.11074 13.8444 14.2179
1205 1 8.07921 16.7192 14.1672
1531 1 -2.90157 2.03755 1.18635
500 1 -2.40804 1.78334 -11.3386
1605 1 10.3097 17.8224 -12.008
891 1 26.8931 14.9357 13.834
562 1 13.6731 -12.6014 1.12816
1682 1 26.4788 16.5618 28.4634
200 1 -13.5175 16.8654 0.925889
857 1 15.7753 -10.1619 13.7918
1341 1 30.191 2.84406 0.179819
1105 1 0.548285 -8.51074 -13.5274
905 1 3.05449 5.17116 13.8526
791 1 2.55694 17.9926 28.0354
1492 1 31.2337 -22.4323 14.3355
479 1 3.75053 3.20168 0.319728
150 1 4.73472 16.7988 -13.5077
69 1 5.6111 3.61397 -12.7489
1475 1 -7.53287 5.20967 15.0009
57 1 -5.26086 3.76773 1.26827
686 1 -3.62686 17.4446 13.8902
1071 1 35.989 2.10366 14.589
1712 1 -4.32266 3.74549 2.02418
1607 1 11.3105 5.29638 28.2047
1697 1 -2.29303 4.0139 1.76787
679 1 11.0832 17.6997 0.609408
44 1 -0.605349 4.01577 0.997025
843 1 40.4535 4.98969 13.9385
1706 1 -14.5856 17.7135 13.586
132 1 15.8126 6.68689 13.9366
119 1 1.15788 18.969 -0.69656
1944 1 14.8156 19.7423 0.249454
1503 1 29.7315 19.3524 14.7132
140 1 16.1081 33.3782 -0.420782
1586 1 -12.5981 5.10605 14.7811
527 1 16.5498 -8.18911 2.60818
1200 1 4.25711 -9.51643 13.8645
1512 1 4.80375 -7.64042 13.3944
1716 1 18.6128 -9.14991 1.07973
1386 1 2.6687 -6.67642 15.2228
1879 1 20.4915 4.76371 14.1134
369 1 7.52654 3.69191 13.535
1764 1 -6.86507 19.6438 -12.2755
1292 1 19.4016 5.72896 26.4058
912 1 5.13741 20.7056 -14.3711
122 1 8.02847 19.0308 -13.973
1881 1 9.59034 18.0601 14.6465
1648 1 9.72692 3.26308 14.9251
616 1 8.94615 5.71111 -1.22617
435 1 -4.05198 20.1184 1.68911
1351 1 -16.8465 20.0714 14.1923
114 1 -4.77636 18.571 -12.1018
611 1 -3.58742 5.28894 0.435676
1462 1 -1.67036 4.41165 -13.1985
373 1 11.3554 7.13051 14.0726
1000 1 0.47167 17.8686 14.7187
1707 1 13.5679 6.19541 0.105612
993 1 0.195247 7.16381 -13.912
814 1 -1.99092 -6.52443 -24.9764
860 1 12.8159 5.52861 -0.711559
836 1 14.6955 6.92801 -0.872024
1433 1 14.4732 7.9004 13.8098
674 1 14.8883 9.10357 13.383
1255 1 -12.4992 7.08192 14.2503
475 1 4.08787 6.90269 15.0324
1745 1 0.00307826 20.7919 12.3924
1453 1 -10.4181 19.9127 1.97795
1300 1 5.15393 -5.89887 14.8347
424 1 -11.1535 7.87253 2.12189
94 1 20.5466 20.2298 2.87455
811 1 19.8498 -19.9873 1.41575
1629 1 5.72692 7.32791 14.0279
900 1 6.70868 -8.14016 13.2142
320 1 -5.62228 5.41611 1.24424
1826 1 6.23922 20.111 13.3005
75 1 -6.29469 5.68993 0.403958
848 1 -4.85652 -8.47403 27.9563
142 1 9.30306 7.48649 14.5835
930 1 -16.2816 21.4914 15.6031
1401 1 7.38038 -5.56927 14.5244
155 1 23.7646 7.17585 -13.6116
138 1 9.40145 6.25466 -12.9534
1858 1 12.145 7.57356 -0.48436
1432 1 12.9599 19.8044 -12.7556
1360 1 -1.89996 -7.50177 0.770371
849 1 13.3114 -6.36025 0.963573
1124 1 1.69832 7.58634 28.9487
1500 1 0.147953 -5.13495 26.9353
1992 1 17.0097 -5.62432 13.3834
429 1 19.2746 -3.78857 1.17287
1865 1 2.94735 9.06682 2.43467
750 1 4.35111 8.85587 1.96669
618 1 4.55892 9.8284 1.46515
934 1 5.81856 11.3 0.826819
501 1 -7.65709 22.1924 -13.0798
204 1 -8.03681 8.61606 -0.539262
2041 1 21.863 7.80779 16.5237
604 1 20.6205 9.06623 15.8439
504 1 33.6399 9.41903 13.5406
669 1 -6.71739 -18.7047 13.7553
1591 1 8.27012 -4.13659 12.0185
1787 1 7.43728 6.63816 0.716138
970 1 22.5006 6.94833 0.0370464
434 1 9.21295 8.531 15.2654
1349 1 -3.354 7.34283 15.06
510 1 -1.98029 9.52216 0.884869
2036 1 -0.418572 8.55546 27.8445
1615 1 -2.42573 -5.12613 14.7478
216 1 10.6873 9.37372 1.43837
1788 1 12.13 21.6376 0.607697
832 1 13.0398 21.3267 0.0902703
208 1 13.8281 -4.08446 0.368677
411 1 12.3157 -4.97006 -1.31392
11 1 2.87752 -4.96864 1.49482
1321 1 -13.2686 10.6042 14.4799
1127 1 -12.8027 9.81094 1.68049
1009 1 16.1543 9.70586 14.8482
1053 1 18.0715 -4.55912 0.310409
471 1 -8.92121 -3.52103 -13.1914
322 1 3.66986 -3.70694 0.721309
1808 1 6.78366 -16.8849 14.715
1927 1 3.25692 12.2401 14.8125
1946 1 35.3039 9.04669 0.50576
103 1 -19.8159 -16.4585 -0.922367
230 1 20.5872 9.06786 14.7041
787 1 -4.02687 -4.21888 1.09359
1225 1 8.69591 10.3964 0.277105
1203 1 9.1098 8.68142 0.329382
384 1 -3.53537 10.2955 2.25162
920 1 12.4551 11.6204 -0.130381
397 1 11.0293 10.1975 12.8309
1195 1 10.802 10.0784 27.9355
826 1 13.4351 -4.21769 1.62402
690 1 12.6271 9.2923 -13.4632
272 1 -0.239796 -5.43107 1.41661
188 1 1.53906 10.9066 14.4986
1138 1 -0.759833 -3.62331 -12.9746
36 1 2.79885 -2.9311 14.0936
1006 1 -13.9863 25.2048 27.8832
1939 1 0.790114 -1.71874 14.3093
1645 1 -9.7205 -1.3058 -11.6667
1384 1 3.23199 -1.80817 13.7275
710 1 3.53374 11.1839 0.999866
219 1 16.1557 11.6562 14.418
251 1 34.8913 -3.5584 0.012755
1306 1 -8.08235 12.449 13.7901
1686 1 18.4085 11.6218 2.0495
1837 1 -4.88924 -16.0203 28.3151
1026 1 -19.1439 -1.53506 1.06469
543 1 8.01938 -16.813 14.8576
310 1 -3.77641 11.6522 1.22478
1924 1 -2.34497 11.6866 13.5587
1483 1 -2.73513 25.8394 42.9049
714 1 -2.8549 11.5166 14.5572
419 1 11.9638 12.5976 -0.487084
1518 1 11.5503 26.3509 28.2946
1376 1 -3.21755 -2.67167 -0.093489
1957 1 -0.0328168 -1.18091 0.0145086
958 1 12.995 -1.54416 -0.758082
536 1 11.7228 24.4638 14.2108
808 1 -1.12984 10.4212 13.5587
573 1 28.3117 -13.0919 0.573303
1561 1 0.607946 13.6699 15.4607
847 1 -11.0512 -0.999009 13.8049
726 1 0.947623 13.556 -0.386177
106 1 15.1925 -0.679924 14.0793
688 1 1.80268 11.7743 -0.176086
1965 1 4.63904 26.7336 13.2899
652 1 4.14053 12.5404 -13.1079
952 1 18.4955 -0.552256 0.749242
1189 1 -8.53134 -1.63708 14.8941
1058 1 -7.20168 12.6531 15.3842
579 1 20.6767 0.845782 0.590053
1769 1 7.33266 26.4624 14.7428
940 1 -6.53965 -2.06458 14.9314
1035 1 9.50839 -1.07302 1.35279
2027 1 9.77243 -1.81595 0.172561
388 1 -3.74679 25.2067 12.8689
1314 1 -2.6105 12.8479 -0.237043
22 1 -3.02937 -13.7995 13.8984
1756 1 23.4909 24.4231 0.768502
713 1 11.2876 27.6789 -0.478496
1956 1 -15.7435 -0.00789971 14.1899
327 1 0.0891101 0.626284 -1.92405
2014 1 12.627 27.059 14.1857
557 1 14.2329 -0.736114 -12.9248
1732 1 -0.32738 27.4819 1.37212
901 1 12.8103 12.3405 0.866439
9 1 15.3445 13.8977 1.22909
1363 1 -13.3744 -12.3442 3.45087
1547 1 13.9042 -15.3978 17.2149
1004 1 1.87197 13.4235 16.0021
654 1 3.08435 27.5434 -11.3507
1146 1 1.1948 14.1867 16.2658
685 1 -10.0356 13.2081 1.13984
765 1 3.10409 15.2869 16.0713
773 1 5.12594 0.508063 2.00807
1443 1 6.42054 27.8048 15.8182
6 1 4.00173 1.12305 15.0069
1426 1 20.8036 14.9367 29.0001
1901 1 7.90559 14.5769 28.3268
1395 1 7.70465 28.011 16.0748
1809 1 8.52253 -13.3925 1.76738
593 1 7.63177 0.763996 3.49701
1209 1 -2.01332 2.56483 2.88098
1183 1 -18.0153 -12.883 15.9492
1343 1 10.3794 14.8783 1.63754
718 1 -3.28715 15.813 17.0873
349 1 10.1634 1.39986 16.3418
1507 1 -1.77042 14.5263 16.6029
800 1 -1.15065 1.73418 3.36343
1242 1 11 0.595542 16.1295
1305 1 -16.4822 0.515195 3.72964
412 1 28.008 0.362816 -9.96849
1334 1 13.2414 0.641768 17.1492
1108 1 14.7223 -10.5517 1.51811
1088 1 0.624124 15.6572 2.74184
522 1 1.42479 17.4974 16.2352
1421 1 2.36831 15.6976 1.36491
1065 1 -12.217 2.6292 2.36118
737 1 -10.1108 16.1215 29.1283
170 1 19.2781 2.12589 -12.7081
375 1 19.4062 2.22156 16.4616
954 1 5.02238 16.8102 -10.8442
1818 1 6.41686 4.63935 2.17459
160 1 5.22921 4.21729 2.85521
1194 1 6.39723 29.3318 15.4017
981 1 33.9814 15.1927 -10.8113
1532 1 21.223 2.11695 16.1439
778 1 -5.99019 -11.8113 17.0936
706 1 8.28852 15.1643 -11.8846
1658 1 7.02059 2.71324 17.0254
1059 1 9.91243 3.02074 16.4091
898 1 11.0488 16.8294 15.9525
583 1 13.1759 3.51495 1.93164
597 1 12.1659 2.83401 1.96793
1676 1 -0.394488 2.02892 14.4699
1170 1 15.268 4.0321 0.832011
566 1 15.6628 -10.1868 -11.9895
329 1 -0.165114 19.3954 3.53809
1608 1 -10.3656 -8.38672 15.2506
1596 1 16.1346 3.3645 2.69078
729 1 17.9603 6.02118 14.5074
567 1 6.38727 4.24038 14.8954
1066 1 17.0049 -10.1333 2.02842
741 1 17.9063 17.7551 16.0845
330 1 20.1044 2.95291 2.05524
135 1 -21.796 17.9141 29.2163
1496 1 20.2358 3.83979 17.4076
1125 1 5.31362 2.9887 15.4679
1618 1 7.47073 3.54286 28.8698
1281 1 -6.09855 -9.87834 3.06308
701 1 19.5748 3.01585 17.3672
575 1 8.35656 2.6934 15.3061
983 1 22.951 15.9889 17.128
235 1 -5.27146 17.181 -11.1707
1576 1 -4.31165 2.32175 1.86012
49 1 -4.60595 1.14585 14.8323
1093 1 10.0282 -9.59483 17.5079
1554 1 26.018 -9.47786 15.3409
1830 1 12.4849 -8.38545 14.9912
2005 1 14.611 4.73803 2.20292
129 1 27.4084 4.47386 1.95752
1719 1 15.8608 4.61844 -12.0036
748 1 -12.3813 6.45096 3.3993
1400 1 0.508958 5.70117 15.7016
1807 1 1.79478 -8.19704 15.7129
733 1 14.6329 6.64542 -11.356
1701 1 2.00439 19.4002 3.22421
1548 1 -9.4109 -22.4523 1.69501
519 1 3.19497 4.25242 16.4143
1986 1 2.9237 18.7386 17.3731
249 1 3.9906 19.0988 2.69592
655 1 7.9368 18.1006 -11.5307
1477 1 19.6836 19.8845 14.4339
612 1 -7.25138 5.82305 2.33683
1086 1 7.91075 4.37567 0.582582
1616 1 7.50451 5.52865 2.5957
476 1 -7.84291 7.32743 2.38014
1054 1 20.9129 -8.81446 1.57203
1251 1 -4.48869 4.76544 17.0537
1221 1 8.5981 18.7118 4.24621
1178 1 10.0347 4.40379 16.4198
545 1 -4.22887 20.2044 3.15505
1495 1 9.84191 19.0847 -12.2737
906 1 -2.65923 18.6079 1.79461
1199 1 12.1429 6.17794 1.81222
60 1 12.7085 6.23241 2.68141
1017 1 -0.00255882 32.6358 -12.4054
145 1 0.463371 19.9601 14.7052
1415 1 0.181373 7.39557 2.00825
232 1 2.28325 20.1204 2.42385
1375 1 15.3704 -20.8879 -12.1504
1110 1 18.2367 6.27325 29.3978
841 1 -23.8145 7.21246 -11.3095
610 1 4.54199 -6.36842 2.83745
1755 1 5.26262 35.6956 2.1486
460 1 5.66576 -7.49491 15.3873
966 1 5.14031 19.1874 0.837134
366 1 -8.1705 7.8208 3.71164
1344 1 22.1122 -7.62369 0.353613
972 1 -18.5732 19.7229 15.176
614 1 8.31057 6.98797 14.7091
101 1 7.58731 7.31361 -9.99013
667 1 9.33507 7.43866 1.94439
195 1 -2.71288 5.86746 15.6536
1233 1 21.2889 -7.26453 -11.8228
396 1 10.5291 20.4583 -11.47
1827 1 -2.54352 20.4624 15.1482
144 1 -15.0173 7.05227 1.36224
997 1 -0.0351626 34.1578 2.83649
1043 1 -1.52156 -5.46734 2.30065
472 1 11.6148 7.87101 3.17961
465 1 14.4459 21.5146 1.15992
627 1 0.79865 8.95357 0.744313
720 1 0.0908409 7.94122 16.5597
1899 1 -9.38673 -5.89294 29.2168
1369 1 3.35231 7.78338 1.50917
483 1 1.22131 8.07789 2.35376
1311 1 15.3652 -18.8705 28.1797
1938 1 3.61818 8.11087 16.3627
1940 1 17.2489 10.0391 2.83772
809 1 -10.6991 -4.79705 3.54687
1810 1 5.84887 9.47585 15.9229
1112 1 -7.4506 -5.26853 2.67009
258 1 6.25211 8.52318 -12.1013
50 1 8.1699 -5.56581 3.79363
1064 1 9.24371 9.53532 2.12715
1772 1 -7.02164 -6.18885 0.0277069
1726 1 -2.65313 36.9649 29.9286
363 1 8.46077 7.83146 1.80965
1392 1 12.4558 8.89141 15.0496
458 1 -0.831163 23.0664 2.55308
1226 1 25.488 8.98761 3.00214
1484 1 0.270545 8.98616 16.6456
1604 1 12.915 20.854 15.9035
1594 1 14.3092 -5.00133 1.75123
1851 1 -0.3166 -7.2754 1.8099
61 1 -0.142204 10.6066 1.74419
938 1 14.7469 10.3082 16.6474
525 1 1.94833 9.02782 1.86155
1328 1 3.57884 9.55176 1.67468
275 1 4.57351 9.64746 -11.1095
164 1 2.7241 -3.62008 2.04998
913 1 19.4812 -2.21908 15.5129
335 1 7.13044 -5.36831 3.10782
846 1 22.0667 -3.68158 2.4764
262 1 7.10046 -2.52149 -11.4802
675 1 7.27634 23.8814 -24.4217
1331 1 -5.07587 -4.37413 1.19926
1263 1 8.21056 11.1315 15.6879
1402 1 21.1859 -3.55861 15.6202
408 1 21.475 -4.82004 -12.0868
1152 1 8.95994 10.3932 15.0746
1778 1 10.0114 22.965 2.88617
1184 1 9.23203 -5.21261 -10.5391
1414 1 -2.47099 10.3469 1.67835
695 1 24.2191 11.1888 1.75085
333 1 25.3416 -4.52021 1.95634
244 1 -15.5127 10.3649 2.85598
1639 1 26.0054 10.011 15.48
239 1 1.95902 10.457 2.50338
1036 1 -0.960599 11.5544 2.69794
1192 1 27.2753 12.3795 15.1972
3 1 2.3369 -2.75013 1.58365
162 1 1.07382 10.8093 -11.7005
941 1 1.50789 -2.00206 15.0524
692 1 4.66506 -2.58228 1.15368
943 1 -8.17963 -1.57129 -10.1971
880 1 4.94925 10.0994 -10.0777
1031 1 -7.34394 -3.27186 -11.2865
1288 1 6.99357 11.7256 16.864
1467 1 22.3547 -1.37204 15.6683
696 1 8.08358 -1.07205 3.24084
929 1 -3.85034 -2.5644 3.14681
1570 1 -1.94634 11.3455 2.08806
167 1 -3.14595 11.8345 2.98005
237 1 -1.63227 -1.97159 -12.7707
1061 1 -1.07055 -2.74474 1.44681
942 1 12.8921 -3.25829 2.64553
1747 1 12.6504 11.7728 3.65646
1606 1 -0.946322 10.791 17.4292
881 1 -0.697624 0.18321 2.56101
1689 1 28.3589 -1.18366 13.1945
1709 1 16.0159 -0.864288 -12.4364
305 1 14.8866 -0.921008 -12.0442
1798 1 4.81454 -14.7153 16.4712
1366 1 17.758 10.5843 2.01412
253 1 -8.97059 12.971 1.71377
104 1 6.31648 -0.870328 16.6304
698 1 46.6867 25.8894 2.43497
1515 1 6.12802 11.1979 2.93308
1867 1 5.63513 13.2305 2.35195
1451 1 7.01933 -1.10311 3.81329
1987 1 -6.1826 12.0956 15.9827
786 1 22.0245 -13.7494 3.09442
343 1 22.2259 14.9504 16.508
584 1 9.71455 11.9039 -11.4079
406 1 7.78372 -0.738859 -11.7463
1638 1 9.599 13.827 14.3963
438 1 24.1549 12.651 0.635128
1309 1 9.96763 -0.147341 15.5377
468 1 -4.56984 13.1087 -11.1642
1922 1 -3.375 -0.882032 16.3026
1357 1 -2.44055 13.2953 1.76538
511 1 11.7913 0.635459 1.74275
974 1 -0.614764 12.8111 2.41274
1877 1 -1.1793 25.8187 15.5645
469 1 2.59573 14.4726 3.08071
493 1 14.6682 14.99 4.31974
1131 1 1.81766 1.00925 -11.668
1229 1 15.6851 1.66273 2.67894
626 1 2.53826 0.180209 -9.16375
88 1 6.77688 1.16848 3.97192
459 1 17.8799 1.49074 19.047
1560 1 -9.05537 1.95121 3.35848
700 1 18.3512 2.2438 2.34809
192 1 18.0151 14.9334 -11.1528
107 1 17.1707 1.53944 3.68324
569 1 21.0558 1.1584 4.89296
1806 1 9.40316 -12.6124 3.3565
1891 1 -5.25663 1.3906 5.02473
128 1 21.5525 0.103949 5.23312
863 1 8.59474 15.3141 3.98567
48 1 8.75478 13.5128 6.14042
1293 1 10.4587 28.7997 4.1848
1943 1 -2.33662 15.2639 17.0955
234 1 -1.28223 15.6833 4.40541
1371 1 -2.34109 -12.4249 -8.85019
1730 1 -2.12585 -0.210757 17.9317
1643 1 1.58377 -12.9196 3.53007
1862 1 12.734 28.2069 18.0019
1201 1 12.7628 13.4387 -9.13225
544 1 26.0763 -13.6407 3.5083
1844 1 13.7564 -11.7065 1.67438
70 1 0.344786 2.92769 2.36145
1320 1 0.671803 3.63567 3.82459
1429 1 13.3692 1.64855 4.37781
1720 1 15.2983 15.7636 4.59567
467 1 1.42791 1.78765 -10.1343
1580 1 31.3041 2.79177 16.5644
1718 1 29.3667 -11.0494 17.2541
1497 1 13.8652 2.57464 3.43354
1149 1 3.05163 2.40102 3.30426
651 1 5.78071 15.2088 -9.97234
1544 1 18.5274 4.06605 18.1402
1450 1 4.77466 1.14374 4.00444
615 1 7.21393 0.790984 5.97768
291 1 -6.56919 16.0967 5.44309
577 1 6.69957 15.8591 4.40262
1441 1 -6.22941 -10.2566 -8.15174
744 1 6.45199 3.42679 18.4325
1502 1 8.49849 31.3972 17.7703
601 1 8.53704 2.99626 5.32986
1942 1 7.11786 18.3808 5.39609
747 1 -4.17005 3.27115 4.82977
1789 1 -5.13418 15.9527 16.2934
1883 1 9.79159 16.0627 17.9842
1663 1 24.166 2.80518 -8.25717
815 1 -0.680164 2.76166 4.05918
1096 1 11.0935 2.30446 -9.24708
1854 1 40.7682 -25.0503 -8.35827
664 1 11.8486 28.3705 -9.68052
1098 1 13.2793 3.43851 3.15973
336 1 14.1106 16.536 18.2039
1665 1 12.9912 2.54676 2.52315
607 1 29.413 4.36995 3.80367
405 1 0.325069 17.6165 -10.8284
456 1 3.36713 3.64427 3.4868
270 1 14.9598 -9.99744 -9.05063
317 1 4.4502 -9.90994 3.5526
487 1 1.24227 5.29465 -9.78556
1919 1 17.5466 -9.04426 3.57036
489 1 -8.76107 5.04663 3.58459
1104 1 19.1669 5.0062 -9.04122
1297 1 5.09021 5.39811 2.37686
999 1 -5.93719 18.4901 3.48447
703 1 6.51186 -8.43808 4.48379
1577 1 -8.13936 3.96906 17.4394
436 1 -20.0358 17.7501 4.36249
1993 1 -6.09706 16.762 4.38456
1961 1 7.45865 5.12348 18.1908
18 1 -3.48651 18.8883 -10.0568
51 1 -18.1911 17.2052 -10.4891
1362 1 9.11006 4.42568 5.94259
105 1 10.9661 3.94389 16.5862
1279 1 -3.06601 30.3606 17.4384
1948 1 24.8273 17.1086 32.2497
2048 1 11.9627 16.5529 17.5512
1463 1 13.0356 19.0231 2.28225
693 1 -0.150236 -9.2934 -10.0376
854 1 1.98866 -7.27555 4.82064
1416 1 15.7701 4.65462 2.76445
1513 1 0.110516 4.98419 30.2259
383 1 15.8477 5.40287 4.51413
1173 1 1.05048 4.40951 3.44518
1159 1 -12.7516 -21.7398 16.6334
1814 1 2.49764 17.0962 17.709
884 1 18.0125 -8.84205 4.67707
2017 1 -11.4705 19.1087 19.3047
1724 1 17.3292 19.5805 17.6026
413 1 20.7073 5.56533 3.54948
763 1 19.9023 -8.90651 -10.5165
617 1 6.87378 5.97169 -8.56928
1636 1 -8.00074 6.42982 2.94534
1708 1 -5.63968 16.5547 3.43287
683 1 7.65436 6.18637 4.26972
1327 1 -5.5512 4.22366 5.14307
921 1 8.66911 5.46621 2.39269
633 1 22.959 17.9568 -8.74636
666 1 -3.20197 19.7795 3.05661
946 1 -3.98927 5.56127 2.48765
844 1 11.0396 -8.4923 2.88271
1224 1 -1.70141 6.03868 4.03521
2013 1 12.4604 17.7389 -10.0393
682 1 -1.79101 5.28904 2.16026
279 1 26.6316 -9.2932 16.311
1291 1 -2.30132 -8.46364 3.85037
1963 1 12.6325 19.0813 30.5794
876 1 11.5358 33.4516 2.84694
1383 1 1.49267 7.51519 32.1044
177 1 -0.681774 -7.34471 4.27218
134 1 0.332635 20.6666 -9.64525
1257 1 26.5276 21.203 16.9676
1236 1 2.50316 21.7437 3.90046
927 1 2.05451 7.09054 17.6164
1356 1 15.938 -5.94572 5.57035
648 1 17.5601 -7.22918 2.97385
27 1 3.93236 -6.77608 -9.67088
243 1 3.06017 -6.63348 -10.2288
46 1 5.42922 -7.0422 -8.5999
1023 1 18.7223 19.5605 -9.16604
531 1 4.79765 6.07217 3.32154
1977 1 4.50428 8.28547 30.7201
477 1 32.518 20.6332 17.8279
1437 1 20.2002 -6.24013 3.43544
1959 1 -5.64616 19.829 3.19783
377 1 36.3221 5.84079 3.77164
813 1 -18.8951 6.94176 15.9706
301 1 11.8456 4.38488 16.5219
1186 1 -2.6216 5.90107 4.51349
1587 1 12.1235 -6.84358 17.2095
1690 1 -0.278199 7.9125 4.12656
1312 1 12.2177 7.02799 18.2185
422 1 -1.41658 3.45629 -24.6835
56 1 1.92226 22.1267 -8.83424
859 1 15.9554 -5.30192 16.6268
171 1 0.036541 22.6189 17.8622
1045 1 15.4211 9.23314 4.04756
724 1 0.89779 7.54261 17.0905
520 1 -11.8553 -19.9743 2.90151
727 1 3.63165 -5.72925 3.73715
1491 1 20.6369 9.86994 32.1555
1074 1 3.04349 7.21795 -9.17799
1964 1 7.26507 7.5021 16.212
1982 1 19.1687 9.0056 17.7873
1863 1 19.1678 8.13545 32.2804
1525 1 8.62432 7.07191 3.78338
595 1 33.5257 7.27917 18.2527
473 1 8.39448 -4.83418 -24.9418
226 1 -17.6316 21.1863 3.04362
196 1 -4.50583 10.1456 -10.5544
1801 1 -2.74837 8.53565 2.73316
779 1 10.1245 -7.20725 -23.2707
137 1 22.983 7.85909 4.07437
949 1 -2.55777 6.54826 3.6511
1739 1 11.1055 -6.57636 4.56296
582 1 -16.6762 7.38628 -10.6498
1347 1 -0.729232 8.5245 3.33194
392 1 1.49908 8.28467 3.57467
1454 1 14.2791 20.7782 5.12063
636 1 1.34506 9.04007 16.5827
549 1 -11.6478 -2.85893 3.99639
1455 1 0.149513 10.9806 2.71263
1652 1 -12.7248 -4.39696 4.65998
221 1 16.5223 10.0156 3.96416
1062 1 2.35457 -3.99656 3.12282
1727 1 18.2849 -4.24014 4.47667
1385 1 5.34783 9.15546 -10.5596
428 1 3.32934 25.0125 2.17817
284 1 17.393 -18.3277 18.0708
1680 1 -9.4471 9.31763 17.1392
1214 1 33.8392 36.5163 4.14402
250 1 19.4109 10.1593 -7.4681
1691 1 -7.24935 9.43051 3.11765
1599 1 34.9719 9.17998 30.285
1438 1 22.2043 22.8216 3.76716
1728 1 7.60336 9.13088 17.6554
498 1 7.82362 24.0581 -8.6596
1003 1 9.28332 24.5543 15.9311
1656 1 8.08684 -3.45505 3.76327
1725 1 10.0523 -5.18041 2.21719
1158 1 24.0592 9.92518 3.87688
673 1 10.3345 7.56075 3.95852
645 1 9.55749 -18.1516 -9.83378
1350 1 -16.735 8.53677 17.5021
92 1 10.8424 10.7953 -10.8776
289 1 24.4047 -2.5579 -23.5092
86 1 38.8814 -4.48758 4.09923
1566 1 11.5766 -3.43496 31.2721
1271 1 11.6604 10.4163 18.7145
1198 1 -1.24707 23.3698 3.49772
1872 1 -12.8425 10.4438 4.32686
1436 1 28.7652 10.996 32.4873
358 1 0.201567 -3.80225 16.2159
761 1 15.4979 -0.203288 3.65146
432 1 16.2757 26.2448 3.3549
994 1 2.30805 -1.78178 1.97449
423 1 16.5374 12.6001 4.31261
781 1 17.6234 -15.6169 3.00701
828 1 5.02778 11.123 2.9078
568 1 19.7898 -3.53651 3.73345
1474 1 7.20364 25.831 4.83949
1210 1 21.7239 11.022 3.04084
976 1 -5.70508 11.3309 -9.21985
1546 1 7.15358 -2.65811 17.6131
1435 1 -4.82167 12.3564 4.30507
1367 1 8.72122 11.7295 16.5119
591 1 9.14606 -0.286634 3.73291
1550 1 23.3034 -3.06204 4.00619
1164 1 11.0864 12.3085 3.88774
81 1 9.30045 -1.23299 3.40099
1825 1 -17.096 -0.625173 3.83882
1095 1 12.2004 12.6054 2.83422
789 1 11.6399 -15.7235 3.16974
227 1 -1.80616 11.1698 17.8623
1771 1 13.5233 12.7632 -9.42632
760 1 13.4174 9.85639 17.236
1461 1 0.90254 -2.1992 17.9484
328 1 0.858802 -0.487942 16.3072
1115 1 0.41573 -15.4947 15.9801
1997 1 -12.2477 12.4031 16.148
699 1 2.98468 -0.223033 3.63529
371 1 -9.87041 14.3111 3.27407
448 1 17.4865 -0.972881 -10.2614
565 1 5.5302 13.4461 3.36126
176 1 4.51625 25.7611 17.5949
658 1 4.74175 10.5407 -8.92681
948 1 6.43021 11.8009 17.6639
1765 1 5.90187 14.3694 18.0569
924 1 5.44714 -2.55158 17.6509
1527 1 6.58311 13.9518 3.34205
259 1 -6.40178 41.1315 -9.33644
1307 1 7.35433 13.4406 2.9413
488 1 -5.91971 11.3115 5.5011
1232 1 8.73346 28.0372 17.8213
168 1 9.10328 -0.427098 4.81397
1262 1 -3.75541 0.0894974 16.612
1339 1 23.9753 -14.0917 4.91013
264 1 12.4126 13.2272 1.5416
1494 1 11.175 13.1719 16.7278
1220 1 15.0364 24.8822 16.9717
1886 1 11.9606 27.2395 16.1341
1634 1 -1.59461 12.514 17.6132
1529 1 3.24635 -0.471007 5.09023
1511 1 13.8188 28.0185 4.64038
116 1 13.5955 30.4431 5.93093
1790 1 2.60589 1.16254 5.75083
430 1 2.97429 26.7629 19.7448
1714 1 30.9306 0.547652 19.2891
804 1 5.03135 -1.099 18.398
532 1 17.9394 -0.35452 5.14884
1621 1 -9.59079 -13.205 18.2689
1752 1 18.9284 0.354051 6.17116
790 1 5.26983 0.205656 -8.60075
2038 1 5.33883 13.0459 33.0994
1316 1 -8.40966 1.42395 4.84793
2037 1 19.6178 14.9787 19.6914
1954 1 21.5835 2.06593 4.55793
337 1 7.15337 16.0444 -6.19749
1466 1 6.2345 0.07702 19.9249
1122 1 8.60531 2.72776 17.9573
722 1 22.9877 15.9096 18.9615
157 1 24.1056 1.47748 5.29143
1796 1 -17.8918 15.0581 4.82357
1412 1 9.68908 13.5329 19.5152
77 1 11.5131 -1.24595 4.88816
426 1 -1.43368 28.8467 5.32834
833 1 -1.2821 -0.781635 -7.99847
1235 1 12.3683 0.51423 5.25025
1848 1 14.3838 15.1991 5.35429
1640 1 29.3675 1.18306 4.93522
776 1 3.74353 2.56555 17.8482
1253 1 16.9174 14.7818 4.62637
1440 1 16.5521 2.11872 5.27852
961 1 2.77723 29.4177 4.27551
2018 1 4.61438 15.3463 19.941
602 1 4.10635 2.49752 5.28532
1272 1 6.20575 1.93031 5.29145
1228 1 5.31997 2.78666 4.56652
174 1 6.3379 15.2918 20.5969
1330 1 4.53896 2.05385 4.51888
111 1 5.84757 16.895 -8.07604
294 1 -7.17149 16.3862 20.1961
225 1 -18.988 -10.0065 6.07893
2033 1 9.35704 17.0072 5.86403
969 1 -4.86914 16.1491 6.20317
380 1 10.1037 -11.5822 6.02297
117 1 -1.98074 2.54601 -22.0276
1760 1 13.4132 1.18043 5.39734
440 1 27.7038 2.14927 6.08076
1660 1 -1.12711 15.8552 6.05717
570 1 28.3463 2.97496 5.47772
971 1 0.405985 -9.36092 4.58266
1677 1 -11.5238 16.5738 5.06546
1176 1 17.3353 -9.67902 18.2272
453 1 -10.7703 17.2981 5.21415
495 1 18.4091 3.41381 -8.34903
630 1 17.2292 -8.37131 20.6427
312 1 4.53568 4.22366 20.1331
1223 1 4.75731 -8.23928 5.34449
687 1 18.6328 4.48882 19.0588
668 1 6.0623 17.9608 6.61664
691 1 6.12262 4.58291 5.54462
1929 1 -3.57559 19.5552 5.1683
1627 1 -7.07631 -9.96301 5.93507
1097 1 7.39026 18.0055 6.34965
410 1 -4.8425 19.5748 6.98629
352 1 23.8701 4.3156 -7.0258
1265 1 9.05631 17.4215 6.86417
637 1 -2.33939 3.75565 6.04309
1619 1 -1.02349 3.09622 5.25939
325 1 12.1175 -9.5539 4.80938
393 1 10.3407 2.85587 -7.08579
1597 1 11.9476 4.59678 6.24643
1075 1 11.1636 18.211 6.96468
1286 1 12.9963 -8.84515 20.7538
1985 1 -14.8065 -10.0282 19.8055
286 1 13.052 17.4634 4.39544
313 1 26.372 18.8202 4.25948
1268 1 13.3477 3.96665 -8.21171
1920 1 13.777 18.9814 18.0591
1353 1 -24.6885 -22.7739 5.21845
223 1 0.74049 19.8637 -9.15887
15 1 14.9372 -8.7909 18.6285
361 1 14.4708 17.768 5.65674
1831 1 30.7282 5.24467 18.3288
198 1 -7.87282 19.2639 3.62038
222 1 3.85264 5.98404 5.10553
1296 1 5.91282 5.73117 19.1277
1154 1 6.60411 20.0605 17.7699
540 1 9.1851 5.26038 5.51685
1738 1 5.48944 5.88239 20.4294
314 1 6.51226 5.32962 -20.8981
189 1 21.9557 5.72714 -8.59346
707 1 8.00903 5.62876 -7.58541
298 1 10.3497 3.88607 -8.10103
1918 1 9.66953 5.12239 4.45112
574 1 11.42 3.90517 3.99119
1633 1 -2.00898 -22.0834 18.6478
136 1 12.5422 5.72803 -7.50227
1748 1 12.9039 7.00673 5.57398
899 1 -0.708222 5.71188 32.4457
1007 1 0.749869 5.80836 -6.46673
254 1 13.3495 9.18143 -8.49484
1041 1 -12.6193 -33.2819 5.97143
1044 1 2.88441 6.20625 18.8534
1459 1 2.96436 -9.06412 33.501
1051 1 30.0591 6.16075 4.05565
265 1 -10.4454 5.78295 6.02071
1609 1 3.90635 6.64322 20.0927
491 1 -7.34738 20.6505 -8.1357
560 1 4.93134 22.1677 19.5461
502 1 18.1241 20.6525 5.2694
490 1 -6.67897 21.6886 -21.5102
1180 1 20.829 7.22504 4.96227
1039 1 9.5522 7.91926 19.7105
425 1 8.86985 6.5232 -8.97541
553 1 7.93308 -6.96807 5.3937
944 1 6.8268 8.02835 4.11739
1282 1 8.90547 -21.0817 -7.73845
246 1 -3.05435 4.74083 -22.7833
624 1 -1.64624 6.23449 -8.26089
1624 1 -2.24671 -8.19709 20.3986
1847 1 9.9185 6.9586 19.2306
7 1 -1.98632 21.7814 4.30782
1391 1 11.6982 7.09477 -7.3318
1926 1 -14.7414 7.83486 19.9356
398 1 -0.0406329 19.2657 -7.08082
278 1 2.79342 -18.0801 4.71095
731 1 15.6419 -4.31456 5.2915
302 1 0.0279007 8.04936 -8.01428
1949 1 16.835 7.05222 5.87917
1841 1 16.8871 -5.38828 -8.53258
1056 1 3.70036 -3.56731 18.2354
1243 1 4.58464 7.83071 4.25836
985 1 17.7663 -5.89667 5.79471
159 1 6.85847 22.3886 18.6503
202 1 5.60882 -4.63781 5.22984
909 1 6.59777 21.412 -6.83231
1797 1 5.99976 -5.60024 5.86712
99 1 7.5021 -6.29286 -20.7966
1795 1 -5.67383 7.39392 18.245
922 1 6.50219 -4.62092 7.16348
1773 1 8.91654 -6.21707 5.192
1819 1 10.3929 7.85161 18.6359
21 1 -5.89401 -4.4976 -8.11613
38 1 8.57082 9.4902 -8.69545
1556 1 10.1613 9.68657 19.3117
2021 1 -17.7583 8.62947 18.8257
73 1 12.5308 23.6186 -9.12071
1578 1 26.2049 -4.92776 4.30327
2042 1 10.5754 22.2091 19.4155
118 1 24.2024 -5.24935 7.17817
1990 1 12.6644 9.79203 5.75892
1302 1 14.5761 8.66808 5.44691
659 1 -13.4814 23.172 6.10097
1452 1 16.9035 9.57731 5.72443
14 1 16.3838 -3.35519 5.21174
1840 1 1.89102 -3.36295 5.79426
1753 1 3.0455 11.1377 3.84861
772 1 4.4938 8.57733 18.6468
1445 1 2.31781 11.3039 19.1247
205 1 -6.91591 9.29087 6.09602
1626 1 19.4909 -17.2666 18.5911
613 1 4.97768 -2.98731 -7.92363
524 1 -5.55926 -3.04162 6.36823
376 1 21.5775 8.01187 19.1235
2007 1 -7.04683 10.5125 19.5208
1090 1 -5.01112 -5.28792 18.3641
890 1 -4.09819 -3.89387 4.74839
499 1 8.81283 23.4057 -7.02991
1370 1 -3.92614 -2.75965 5.05196
1408 1 10.4755 10.87 19.357
1693 1 24.3544 10.2247 18.5335
1072 1 -1.7343 -4.54648 6.35637
181 1 0.74384 23.8547 5.46464
1557 1 2.01277 -15.6487 4.52884
1673 1 0.311789 -1.6783 6.10494
1422 1 0.93884 12.0556 18.9175
694 1 1.38386 12.5774 4.47176
257 1 3.42971 11.2394 -7.96921
590 1 4.11288 10.8051 -9.80997
1852 1 4.28996 -2.31386 6.29895
1885 1 6.23321 -2.60464 4.75138
1650 1 7.10684 10.186 20.4857
68 1 -8.40453 11.2602 6.78884
1290 1 -7.74006 -2.16603 5.849
445 1 6.29693 10.8576 -6.41453
756 1 6.93416 25.6702 -7.94482
1869 1 8.99405 25.1762 18.5314
1664 1 23.6657 25.6134 -9.65741
1103 1 22.4544 -2.41322 3.80811
1551 1 10.773 -2.00664 4.75824
740 1 -3.02167 10.9318 20.4548
20 1 11.5422 10.9194 6.01741
231 1 -0.692216 25.1067 18.2898
858 1 -2.44518 12.3007 5.86248
1116 1 -2.45422 9.84461 5.97629
367 1 12.7099 10.733 5.35867
711 1 -0.129896 10.194 4.68036
121 1 15.2051 12.1548 3.5904
514 1 1.35249 0.09619 -9.2139
74 1 -9.84737 12.3198 18.4614
1378 1 15.8055 -0.747617 20.8665
1625 1 2.02928 -1.18999 5.43876
315 1 18.3307 13.8362 2.97391
2015 1 30.3297 12.0924 5.31226
1859 1 4.68046 13.3794 17.7558
261 1 3.90603 11.2431 4.70655
213 1 4.07748 12.3127 -7.86045
126 1 18.821 -2.09718 4.88367
166 1 -7.76011 -0.481355 18.0361
749 1 6.77355 -0.578861 4.94288
580 1 5.0971 12.0839 5.93198
1478 1 6.38527 14.2044 32.636
415 1 35.6774 12.2304 5.2294
1083 1 21.5645 -0.780367 4.33786
2045 1 19.7414 12.4861 5.22769
153 1 7.47833 12.9223 -7.92352
1324 1 -3.81894 12.1892 -8.67194
183 1 9.83456 0.523075 4.25703
1573 1 9.2154 -1.06015 -7.97162
1099 1 11.0937 -13.7549 5.52067
1585 1 10.6547 14.2623 18.5665
1662 1 -1.77054 11.542 5.21765
1244 1 -0.172661 13.0298 3.23766
1073 1 14.4864 12.9214 -9.93672
1681 1 -28.3069 12.4201 4.73837
355 1 1.32675 1.78691 7.46924
1140 1 -0.786668 2.50125 7.02356
45 1 14.8497 13.0572 -6.05827
767 1 1.67305 14.2794 7.1498
1050 1 2.74725 -11.6344 8.18019
991 1 18.5772 16.7233 -7.32949
1489 1 17.1494 1.65051 6.33518
1337 1 18.0953 2.74128 7.5275
1539 1 4.10512 0.635415 6.68976
1345 1 4.19564 -14.1171 20.1188
1046 1 5.19707 2.3989 5.57488
632 1 33.9616 13.7609 -5.85248
515 1 5.06527 -0.91807 20.4334
1846 1 7.5831 15.207 6.79732
1777 1 8.05563 28.0873 7.39154
1880 1 -8.03943 -0.621038 -5.59811
1267 1 8.48141 15.2966 -6.92013
1092 1 8.31367 0.680407 20.0325
822 1 -17.788 13.7285 6.83004
1915 1 21.5414 1.9005 5.9153
1836 1 12.0242 0.103274 8.00797
485 1 -3.71687 0.800115 5.90851
348 1 0.303608 13.1188 6.43547
1849 1 11.2204 0.400646 7.32466
228 1 -0.699948 14.9305 -7.12312
1898 1 2.28359 13.4728 -8.34906
169 1 0.395372 0.518514 6.17282
1861 1 11.9727 14.4477 19.8708
855 1 2.32024 1.20406 17.6792
1389 1 -11.8561 15.7556 -7.97298
1028 1 2.44239 -11.1869 6.32394
299 1 17.1042 2.51728 -20.1136
1020 1 2.60405 1.768 6.9858
1374 1 -10.4741 -9.9107 8.03776
2028 1 3.86056 16.3095 6.27389
1904 1 4.21819 17.2917 21.793