ITEM: TIMESTEP
210000
ITEM: NUMBER OF ATOMS
2048
ITEM: BOX BOUNDS pp pp pp
0.0000000000000000e+00 1.3679807573413575e+01
0.0000000000000000e+00 1.3679807573413575e+01
0.0000000000000000e+00 1.3679807573413575e+01
ITEM: ATOMS id type xu yu zu
1817 1 15.2152 1.26398 14.2935
1777 1 15.7158 27.7552 14.8074
814 1 2.12642 -14.8756 -27.1422
64 1 27.8182 14.3506 0.0770816
1151 1 29.4211 -0.199637 -0.162225
1890 1 3.19467 -13.4911 0.299634
66 1 18.0492 -25.3759 1.29592
1382 1 4.79563 0.974509 -12.8049
1081 1 19.1294 28.9527 -12.2915
1537 1 18.9432 -14.6276 14.0265
1703 1 -9.74816 -1.90971e-05 1.03278
749 1 4.849 -0.00645287 14.3125
399 1 -20.5042 13.2942 -0.263168
1083 1 20.372 0.576044 13.6902
1726 1 -6.96484 41.4597 29.7179
829 1 22.9805 30.1219 14.658
1959 1 -4.64892 27.6849 0.647297
112 1 -4.935 14.8857 15.9286
2027 1 9.52297 0.569491 -12.0801
259 1 -2.09466 40.819 -12.0931
741 1 10.2446 15.1421 14.9031
1036 1 -2.43883 15.4577 1.15912
587 1 -0.892387 0.57453 16.5141
1343 1 14.4236 15.0332 -0.975719
906 1 0.420082 28.9011 14.2801
1651 1 12.3286 1.37256 28.5786
1525 1 14.7372 3.99849 13.2398
70 1 1.17847 16.1694 0.328978
855 1 1.30875 2.45126 15.7419
1987 1 -13.1766 2.72733 15.1091
1531 1 -11.5013 2.81168 0.887175
457 1 -10.892 28.495 1.09086
1801 1 4.21483 15.4779 -0.426519
9 1 20.3004 15.7138 2.08674
1055 1 3.26817 2.23833 -12.4693
1209 1 4.83751 1.89518 0.352118
524 1 -7.85287 -11.3041 0.850082
25 1 -7.66842 -10.3937 -12.0669
1637 1 8.20046 2.56839 14.0586
480 1 10.3505 15.9967 0.705115
709 1 -4.42047 2.0619 -11.5798
1508 1 -4.53425 16.249 3.0143
1919 1 23.7988 -12.1156 16.2657
157 1 23.9733 2.82929 13.3023
320 1 -2.62438 2.94671 1.27
704 1 11.9943 1.13125 0.125547
1116 1 -1.7238 0.752866 1.97765
359 1 12.2754 2.46377 -12.2464
1421 1 -0.404688 15.715 1.26006
1561 1 -0.327271 16.9565 14.7943
843 1 55.3409 3.65711 14.5709
1701 1 2.38908 17.5347 0.895952
1065 1 -0.125592 17.2944 0.168982
1835 1 -13.2396 4.14641 2.86288
311 1 17.0415 17.8601 0.752658
667 1 1.54062 17.1333 1.3575
405 1 3.52159 17.3296 -11.2858
1551 1 3.1488 1.95715 -0.700143
252 1 5.29528 4.21362 1.12779
1649 1 17.9691 17.5439 28.5527
727 1 4.04401 -10.8193 0.544892
93 1 6.06642 16.5533 -13.8268
1901 1 7.13083 4.65714 27.9987
1035 1 7.53614 3.77734 0.35486
1832 1 -4.47156 2.54803 13.5628
455 1 -4.26663 17.9815 -0.486464
380 1 10.2768 -23.4827 -0.45649
337 1 -1.81873 17.3414 -13.7607
1866 1 11.6525 -24.6606 26.5565
1692 1 24.108 30.7467 14.1953
1941 1 -1.20275 16.8044 0.560186
1625 1 -0.558719 4.28885 -0.717148
1256 1 -13.87 4.88962 0.213131
1216 1 2.67683 -9.08552 1.71904
1810 1 3.19125 5.32321 14.7472
1098 1 18.6173 4.72561 1.91721
420 1 3.75119 18.2993 -11.867
1761 1 4.09616 4.98555 0.62413
321 1 17.1659 -8.06522 -11.4095
1503 1 19.6026 19.1242 14.9107
1352 1 -8.51224 16.7916 0.425982
947 1 6.72449 3.62073 13.4521
1722 1 32.0361 6.73997 -0.432054
1158 1 20.6164 6.79447 1.89722
178 1 19.055 6.50386 -13.4451
1576 1 -5.33155 4.77236 13.4821
912 1 -6.3111 19.1986 -27.4312
985 1 22.2042 -10.0058 13.5171
1267 1 8.4032 19.4801 -14.256
1860 1 10.6231 19.0296 14.2222
430 1 -3.55137 18.5794 26.5084
894 1 9.89887 4.51447 0.870338
682 1 -4.69528 4.45072 0.522726
791 1 11.4661 18.9045 26.2328
1481 1 -1.77902 20.7107 -1.95349
1459 1 -1.0036 4.11045 27.7104
859 1 24.8609 -8.59998 15.1541
1273 1 -0.202835 -9.25085 1.14259
769 1 1.51528 -20.3445 1.56103
996 1 -0.53185 21.3125 13.7586
1497 1 17.2329 6.37669 1.18891
1422 1 2.14069 7.70521 14.8259
936 1 2.57598 20.1717 1.48136
826 1 0.772698 6.61898 0.834688
278 1 3.44938 -34.3228 2.22098
1574 1 4.49071 -7.84724 28.6632
200 1 -8.28276 19.9602 1.68476
1225 1 18.2229 7.84541 0.3501
671 1 32.6727 7.51618 14.736
973 1 6.5177 -5.48379 14.3647
341 1 -7.24051 6.40319 -12.546
18 1 7.51617 20.1585 0.270348
735 1 -18.3575 6.15011 12.1781
244 1 -19.5636 8.47618 1.09641
568 1 23.9222 -6.95835 -0.0496841
1051 1 36.9975 6.03017 -0.782237
373 1 11.069 6.06552 -0.529701
2001 1 11.556 -18.935 1.21527
1367 1 11.1991 21.7313 13.6112
1881 1 13.4946 20.1333 15.2497
908 1 11.6848 7.23573 -0.833346
1402 1 26.5225 -7.73864 15.7346
1599 1 41.0107 8.67126 27.8073
716 1 0.114823 9.43424 -0.363882
1093 1 14.129 -4.57656 15.1086
1667 1 0.722471 21.6637 14.6316
1608 1 -11.9796 -18.2989 15.5528
1469 1 1.57144 7.97182 -0.579418
334 1 2.70371 8.21404 0.353487
486 1 17.1446 7.81193 0.81376
80 1 -9.63695 9.19257 12.8617
1820 1 4.37127 -6.83053 14.5995
1923 1 -6.90527 9.71965 0.737086
1097 1 4.1022 21.3282 15.2753
1847 1 18.3574 8.96867 16.0838
1796 1 -19.4781 9.59941 0.618949
490 1 -4.68385 23.9356 -25.9574
246 1 -4.9662 9.01644 -26.0645
1108 1 24.0188 -18.6325 1.57906
537 1 9.4244 7.21342 0.667481
1411 1 -3.88427 -4.13013 12.7277
1977 1 9.45985 9.47724 29.2842
177 1 -2.72117 11.0542 1.05405
326 1 -17.8117 8.32449 0.560232
54 1 11.5149 9.26902 -13.1685
1543 1 -14.8226 -5.18655 0.476138
1029 1 2.5745 -3.77607 -0.579305
1611 1 1.32102 -3.8543 13.4831
1940 1 16.8306 9.0755 13.4684
26 1 15.8926 -4.61727 -12.8795
1824 1 28.8053 -2.66151 15.3576
983 1 30.251 10.2091 25.0023
208 1 3.91649 -3.71408 -0.281476
258 1 2.64676 9.94369 -13.1022
2047 1 20.0315 22.705 28.9157
1016 1 18.9646 8.44342 15.1742
397 1 3.75197 10.2619 14.4603
1130 1 4.69017 -3.98715 0.801653
1803 1 6.8389 -4.60074 13.1826
1770 1 7.73496 -3.22369 1.41678
465 1 8.85146 22.7048 2.85242
401 1 21.9616 24.3197 0.442274
1504 1 23.3184 -2.64841 15.6552
774 1 23.5043 -4.3439 0.654572
1555 1 12.2351 -1.69581 0.418043
110 1 25.0026 -3.57891 -0.418956
1446 1 -15.9534 -15.5526 1.72214
1464 1 -3.04373 9.86086 27.8613
898 1 13.1953 9.23857 14.8686
1234 1 -1.23885 9.68983 14.2057
759 1 -1.63986 9.61393 15.2109
193 1 -12.5713 12.0699 -0.246164
275 1 13.743 10.7861 -12.2112
1473 1 28.1969 26.6721 12.1175
1818 1 0.978569 11.0657 -0.0784215
1389 1 -10.9246 11.9827 -12.3515
636 1 4.39901 10.7869 13.682
1269 1 2.01411 11.2285 13.5569
1415 1 3.59112 11.3382 0.494352
980 1 7.06863 10.7897 -11.4242
1270 1 19.653 -17.0366 14.1251
1780 1 20.8576 -1.69559 0.699718
1448 1 7.05573 -17.2375 -0.214504
953 1 8.30776 -3.87709 2.15183
1410 1 9.1052 10.9541 -0.0590677
935 1 10.3571 -1.97106 2.25886
1712 1 -3.88884 -1.6652 1.37902
1948 1 38.0391 12.7382 28.9918
1513 1 10.0611 10.0537 28.8219
402 1 23.8655 12.5643 13.6817
703 1 12.0075 -1.10705 2.04191
1276 1 -0.77135 -14.7258 -12.5908
949 1 -0.589822 -2.17744 0.617536
1223 1 -0.00816766 -1.78988 1.45497
1949 1 13.5709 11.6488 -0.332367
469 1 1.24246 26.488 14.1726
1138 1 13.6006 -1.11315 -13.503
614 1 14.1315 -2.27507 14.3406
533 1 1.21879 13.92 -14.6152
881 1 13.6273 -0.07015 -1.1715
1690 1 2.93124 -1.85182 -0.0596782
850 1 4.10502 -0.445184 27.4622
484 1 4.50098 -0.856839 -12.4867
8 1 -9.35074 -1.68506 14.0553
778 1 5.25637 -15.4206 13.3545
65 1 5.04268 13.3626 13.2463
343 1 20.087 12.765 15.0446
219 1 19.9917 12.3452 13.3695
1562 1 23.2777 -14.331 28.4296
688 1 8.55633 -0.540178 0.468977
1237 1 8.11235 27.0946 13.1245
955 1 -3.89239 -0.885086 -11.4029
1686 1 22.8933 -1.6834 0.0237093
866 1 -3.01524 -0.440707 0.655348
1409 1 -15.3499 -0.717791 28.0443
1688 1 10.9984 12.045 13.088
431 1 0.148813 -14.2978 1.84611
134 1 1.34018 27.617 -13.3374
192 1 15.9083 13.1756 2.6829
1456 1 1.3768 15.3337 16.3732
946 1 -13.2179 14.5872 2.43616
1733 1 3.30229 26.5672 0.765291
718 1 2.17411 12.9875 14.9236
1814 1 1.28271 14.1493 16.8621
1886 1 18.285 26.9826 15.7239
78 1 4.68545 -12.5442 -11.8177
809 1 -23.7048 -13.8764 2.54512
570 1 34.0699 13.8626 3.53177
1735 1 -8.03659 0.0287807 2.56075
1925 1 22.2323 27.6347 1.69595
363 1 7.0723 12.1304 2.8375
1226 1 35.6584 13.9187 18.1678
1635 1 8.38866 -0.368636 16.1974
561 1 5.35461 15.6459 2.49503
1716 1 23.4242 -14.1646 3.27226
332 1 -18.6145 13.8068 3.42689
1505 1 -5.71359 12.9456 -9.61901
1492 1 36.7352 -26.9393 16.3031
107 1 23.231 1.54594 4.57387
1516 1 12.0884 28.7292 3.33568
1478 1 12.6758 13.5726 29.0122
10 1 10.5036 0.108493 -11.8733
692 1 -2.09202 2.04169 2.12205
553 1 10.9473 -12.6886 2.16678
1855 1 28.3953 15.1978 1.51571
1077 1 14.3385 -12.3592 3.37668
1736 1 -0.545588 28.8431 16.7729
1498 1 0.00699342 14.295 3.54174
897 1 0.82792 14.11 1.35402
706 1 1.58977 14.1366 -11.6122
853 1 2.69712 -11.8889 3.77415
623 1 30.285 -13.4652 1.87346
1829 1 2.46605 1.29424 -11.5342
1888 1 4.13867 3.11356 16.826
1429 1 4.51397 1.40722 3.55529
515 1 3.19283 3.44429 15.2078
750 1 5.10609 16.4328 1.84159
1687 1 -9.46861 2.07401 43.8521
434 1 6.63334 1.07443 14.8585
655 1 7.97333 14.6702 -12.522
404 1 6.8975 1.20837 16.7923
922 1 7.47431 -11.4814 2.9754
1577 1 -6.13655 2.63486 15.1425
24 1 8.15599 1.462 3.0763
1790 1 8.3135 1.98573 1.27989
1326 1 -18.3602 16.0145 17.7605
232 1 11.3631 15.8545 -10.4549
603 1 10.8315 3.18591 2.29924
1011 1 -4.35627 15.1215 3.24194
1882 1 25.5595 3.63834 14.903
1542 1 -1.87283 3.15452 3.48814
231 1 -1.7731 30.417 15.9172
1174 1 13.0572 2.77296 15.802
1041 1 -11.4378 -37.9413 2.22537
795 1 0.134835 -10.6225 2.9131
662 1 1.29015 16.9616 16.5337
1738 1 0.952956 -9.24788 15.6724
765 1 2.6075 15.6969 27.6041
1337 1 15.4885 2.38359 3.1997
1720 1 16.9993 16.369 2.44138
1764 1 -9.58615 16.565 -25.7031
1412 1 5.98492 18.6143 29.5748
605 1 6.35648 18.1418 15.081
2037 1 7.48534 17.9682 26.804
21 1 -6.594 -10.271 -11.9161
1126 1 -3.40293 16.104 15.5896
1070 1 9.14904 -9.51063 15.293
927 1 -4.44535 3.60759 16.388
1022 1 22.2676 -10.677 1.93267
840 1 9.80229 17.1428 1.44277
895 1 38.3957 3.87355 -10.5916
577 1 12.7198 5.01991 1.33732
649 1 12.5897 17.528 29.2491
991 1 13.8923 17.364 -11.6631
746 1 -26.4762 2.35016 3.56315
942 1 14.7714 -8.00558 1.4427
1206 1 1.94161 6.53123 28.0263
1484 1 1.65015 5.16875 2.43707
203 1 -25.159 19.255 15.1327
834 1 2.98269 -9.00983 16.4118
1399 1 17.049 17.5779 17.131
1202 1 17.7422 4.73228 16.7804
1450 1 4.78518 3.53331 2.35672
467 1 3.00257 4.95344 -9.84859
796 1 -9.13391 -21.5814 2.52519
975 1 5.50741 5.80206 30.1162
586 1 3.76837 17.3515 4.6612
1823 1 4.41626 31.938 4.22068
1982 1 19.8436 3.7226 0.724431
1066 1 18.7339 -20.4555 3.03032
1196 1 -6.69585 19.2625 -12.5459
766 1 -4.82136 6.39617 1.93505
913 1 8.8864 -8.16224 14.8355
1721 1 21.6759 5.05839 14.5798
978 1 9.42966 17.2269 0.293313
1006 1 -30.0204 31.6165 28.1829
1930 1 -3.2631 4.35579 1.74364
139 1 8.93103 18.3853 -11.0368
1404 1 -1.76478 -21.8642 15.6931
339 1 10.9826 33.603 14.6695
2023 1 -2.80312 4.996 -11.0948
393 1 9.6548 5.50223 1.94587
145 1 0.177553 32.7464 15.7558
1462 1 -14.3201 5.04306 -11.1703
1156 1 -12.8905 33.8311 -11.6668
1144 1 -0.152061 -6.29115 1.15935
366 1 0.642691 7.41343 2.34168
74 1 -9.84886 19.3187 17.0239
1783 1 15.4273 -7.51806 29.6123
1178 1 16.1885 6.77575 2.57589
1100 1 4.5768 6.73888 15.7614
1641 1 6.00437 6.96524 16.0959
551 1 -8.85478 -7.69557 3.65342
1313 1 -6.65 21.5977 -11.9797
75 1 -8.01603 6.60784 -9.65409
719 1 9.37845 7.37147 1.99711
1299 1 -5.28968 5.75459 16.3884
680 1 -5.79845 -7.61067 15.1994
1408 1 8.61574 6.49536 14.5415
1665 1 9.15483 7.66346 3.00415
845 1 -2.75458 7.19817 -12.1305
2034 1 12.2129 35.0217 1.08927
3 1 -2.82554 -7.71483 1.89898
1298 1 -2.42017 -20.1833 14.2588
447 1 26.4278 -6.64576 2.15651
1189 1 -13.3432 -4.77781 16.1374
865 1 0.868295 8.00994 16.8764
564 1 -15.4354 6.64366 2.87639
873 1 15.3518 23.3029 -10.7765
652 1 2.58397 8.50476 -12.0676
1147 1 -12.5029 -5.51609 15.5283
53 1 29.4554 7.61791 15.8942
644 1 -9.54248 8.67318 15.191
787 1 3.29817 -17.8932 1.48403
528 1 17.3266 21.8756 13.4398
705 1 3.0901 7.65898 15.5475
241 1 -10.7804 7.75351 16.6475
1869 1 5.9832 21.5769 15.7032
1000 1 4.32774 22.5931 13.9224
1802 1 6.71931 8.6102 16.228
236 1 5.81533 7.90616 3.12022
1650 1 6.18253 8.54676 17.9451
1511 1 21.4548 36.1578 -11.6665
1517 1 21.7612 7.06977 15.285
601 1 8.32659 7.88856 2.15577
1208 1 23.0337 8.42853 15.8344
1291 1 -17.3087 -5.35827 3.18023
868 1 -3.61093 7.74975 28.5954
425 1 10.307 7.62386 -11.3261
883 1 10.9966 -3.85618 15.134
2009 1 -15.9626 9.02103 15.7449
1663 1 11.5934 -3.36426 -13.0726
781 1 12.3205 -5.07571 2.4318
1038 1 -1.25832 -17.9849 3.3347
1420 1 26.4015 -20.6116 14.6441
350 1 40.3788 -4.39619 -11.3997
914 1 1.02908 -17.5229 -11.6769
1939 1 13.3952 -4.018 16.8746
272 1 -12.0577 -3.74138 1.07711
1306 1 -12.364 24.3248 30.0239
1714 1 28.2581 -1.70346 16.1668
1292 1 17.9207 11.1309 42.298
1683 1 2.34768 10.9526 14.7405
1805 1 30.7488 9.75212 2.47953
144 1 -23.4603 7.48632 2.71856
1302 1 19.8514 10.2057 1.5337
613 1 5.65656 -4.21041 -12.6822
1500 1 6.47152 -4.44139 30.8331
1633 1 -4.64743 -17.3336 16.5686
1257 1 22.6593 24.257 3.91257
1588 1 -2.93371 -16.8424 2.25132
982 1 11.737 10.9869 3.38124
98 1 -1.83369 -3.78228 2.56629
1428 1 11.7208 10.703 1.68673
1099 1 13.107 -19.2022 1.65286
1149 1 -0.156984 -2.10181 2.50113
1626 1 13.868 -16.8572 16.1677
1889 1 15.1314 12.6324 15.6187
607 1 29.2744 11.7541 2.32389
1679 1 13.8298 12.6091 30.2516
207 1 16.1842 -3.61571 15.5671
1376 1 2.47962 -2.69094 16.5498
2014 1 16.2747 23.624 16.7699
1431 1 2.96795 11.0498 15.5394
121 1 4.93276 24.3952 2.43934
418 1 18.0386 12.2016 16.2276
41 1 6.2407 -16.0132 -12.4226
925 1 21.2751 -15.875 -12.1056
1871 1 6.40672 -0.851219 16.0318
1075 1 21.7377 11.7848 2.57759
615 1 6.40308 -2.09967 15.9117
33 1 -6.51929 -4.01804 -12.0216
115 1 8.6057 10.7943 29.5042
989 1 -3.70253 37.8036 2.98737
841 1 -33.677 -3.87208 -10.8261
837 1 -5.69533 -2.93426 3.05797
792 1 24.4845 -16.1466 16.7974
1934 1 -5.13408 -2.76425 -8.79415
1262 1 -4.82837 -1.16552 16.6432
1096 1 10.5617 -0.0875399 -10.8662
1993 1 -14.3282 26.1991 2.27641
1681 1 -29.3368 13.4014 16.3797
1124 1 -2.67658 12.457 30.0022
1356 1 12.6369 -3.23694 1.188
629 1 -1.82831 -2.30857 2.52346
233 1 13.5026 12.1392 -9.93906
794 1 1.37779 -0.384707 32.1094
114 1 0.0647358 13.5118 -12.8671
1495 1 13.5477 13.6128 -10.8814
627 1 15.1911 11.8662 0.935891
910 1 14.7021 13.3784 -11.0295
367 1 16.9309 12.0641 2.94926
728 1 1.87758 27.1333 3.80222
1155 1 3.82816 12.0368 -12.1497
165 1 -8.57879 11.7194 -12.6345
884 1 19.6244 -1.73009 0.60862
104 1 5.50178 -0.590444 15.4578
1058 1 -7.73273 12.6212 17.9602
36 1 5.55475 0.419922 15.0858
1254 1 5.15916 24.1569 15.0513
152 1 7.32193 12.5551 1.60058
1317 1 6.11309 13.6616 0.592077
58 1 22.4141 -1.70825 1.70036
1057 1 9.14494 -15.4853 17.7251
2008 1 10.1399 -1.39096 3.23226
1837 1 -1.55522 -13.2984 30.963
1388 1 -16.2859 0.838254 16.8888
1507 1 10.9458 13.0347 17.4736
542 1 -16.1573 0.249955 4.07002
628 1 12.9312 -0.769759 3.2391
646 1 -0.251448 14.2673 15.3994
1732 1 -1.20209 41.3539 0.675359
1160 1 -0.626499 -0.12047 17.8174
168 1 15.8348 -13.3007 4.52491
82 1 0.879593 1.02833 4.58428
378 1 2.75772 -11.7182 2.83102
1152 1 16.1682 12.9716 18.162
919 1 1.24599 -11.0749 6.0512
1754 1 17.5369 27.6965 17.1565
106 1 17.3976 1.12 16.5496
620 1 3.49563 1.21633 31.3555
2020 1 5.98343 13.6931 18.2048
81 1 22.4281 1.20145 4.10224
1971 1 -6.84441 12.436 -9.60951
1351 1 -20.0432 13.1238 16.9635
849 1 24.1861 -14.0034 4.65196
1275 1 9.57094 13.9995 18.2381
1767 1 8.09706 14.7946 32.4486
1318 1 -3.44137 -25.7215 -8.16295
1534 1 -3.47752 15.7113 3.59101
1778 1 13.3652 30.1087 3.86282
523 1 27.3199 14.329 32.1842
771 1 13.234 -11.9841 18.7901
848 1 -12.645 -11.3678 32.4912
833 1 0.0410775 -11.2036 -8.121
825 1 0.295208 1.94522 4.30105
1332 1 15.8538 1.90882 15.0332
428 1 2.18369 29.8705 18.9008
221 1 17.2799 15.0361 1.75273
111 1 4.73993 14.3189 -10.8113
748 1 -5.98399 14.079 2.77922
838 1 -8.06659 -10.4654 -8.57708
1363 1 -22.0353 1.91905 3.81555
1131 1 5.7291 2.78954 -9.59849
242 1 7.44084 3.09149 -9.93806
195 1 -5.16616 3.21479 17.2179
2016 1 22.4457 15.6816 32.4634
166 1 -6.29028 4.08133 17.4025
1321 1 -6.57648 17.9171 16.3354
1758 1 9.6211 30.7135 3.97716
1027 1 -1.15433 3.82312 5.0237
1349 1 -15.6446 17.7037 17.8195
1056 1 -1.33822 2.29508 16.5794
1622 1 -2.53781 15.5318 18.0246
998 1 -14.7021 15.3419 2.17619
1952 1 13.8802 2.00817 29.7292
358 1 -0.91216 3.402 16.6305
720 1 -1.09226 3.38939 17.7539
101 1 -0.279701 3.94566 -9.26712
1957 1 0.639944 3.30602 4.69516
981 1 28.8132 18.0159 -10.2487
450 1 -12.134 3.32582 -8.46834
1554 1 16.4458 -24.4665 4.38138
797 1 3.54528 2.3851 -23.6145
1242 1 17.8597 2.37798 18.5457
1319 1 4.96686 4.18648 3.20658
565 1 2.62024 16.7862 3.30134
443 1 4.66725 30.6832 -9.59255
683 1 19.4825 3.93806 2.4812
1334 1 5.52112 3.01727 16.7057
584 1 6.65462 4.85014 -10.3668
1776 1 20.239 16.9493 30.3726
923 1 -7.43713 16.0004 30.7021
1604 1 7.32128 32.1015 15.323
811 1 21.7742 -23.4204 2.20105
579 1 23.1258 5.38602 3.35333
216 1 6.70778 16.7406 4.45315
2028 1 -2.41168 18.7681 17.5095
37 1 -3.61095 16.6607 -10.702
992 1 9.91874 4.40978 16.4165
634 1 11.5137 3.74609 5.58758
1101 1 12.8354 4.43768 17.2092
1616 1 -1.71363 3.22407 6.59907
1659 1 12.0239 4.88469 2.89053
342 1 11.6777 -9.36007 15.6675
583 1 -0.939374 5.8649 3.21342
1628 1 -0.625521 3.32591 5.93
290 1 -0.189834 6.66051 2.6931
505 1 27.831 -8.41698 30.4875
1491 1 14.4936 3.48993 31.0332
472 1 1.68775 3.11459 4.12452
149 1 -12.5264 19.8738 -24.1622
69 1 2.15683 -9.48234 -11.0437
417 1 -11.6373 18.9711 3.79266
1552 1 -11.3206 -9.53924 3.86008
1433 1 19.0926 5.02769 17.2966
1425 1 3.24104 17.7395 5.74518
743 1 -22.4166 33.3054 5.08787
1612 1 6.45744 -7.73504 15.9911
1458 1 6.14089 17.6739 17.5062
439 1 -6.33279 5.26415 2.50139
42 1 -19.0622 5.06702 1.97888
764 1 -4.50854 31.8078 17.4132
295 1 -6.40643 19.3279 3.91711
1146 1 -3.51731 5.33516 17.8667
414 1 9.44449 19.8926 -9.62652
1183 1 -18.836 -7.68845 18.2718
1228 1 11.4161 5.78481 3.13953
274 1 -17.0882 5.7224 -24.5859
1583 1 -0.225664 32.637 31.1858
348 1 -1.87535 20.1964 1.43177
775 1 13.2524 7.13311 18.0777
1296 1 1.61052 7.11196 16.7139
1366 1 13.8841 7.26617 3.4237
1689 1 30.1475 -7.8692 16.8191
632 1 30.4622 6.10642 -9.49554
1907 1 16.9579 34.1176 -10.4085
670 1 -9.3771 8.28542 -10.4826
1106 1 -10.0193 7.55541 4.02251
1893 1 4.13226 5.63725 19.3616
253 1 -8.86558 7.8739 4.04471
1240 1 6.33167 -7.20676 3.26045
1600 1 21.1406 -7.42582 2.9129
679 1 4.7165 20.5347 -9.37283
2046 1 6.97116 7.43012 16.3929
267 1 -4.4079 -7.32448 2.94638
1194 1 8.54873 33.978 17.2475
1892 1 9.66726 6.12705 14.3272
99 1 8.11593 -6.5871 -24.5913
1792 1 -2.74558 34.1314 16.176
1947 1 9.95647 -20.7541 1.69084
762 1 13.4862 35.2311 -11.0603
318 1 11.2765 -5.63847 -10.6341
1087 1 1.6219 8.47453 2.72239
1046 1 2.87123 -5.55711 4.47631
11 1 -0.965759 -6.59346 3.3525
119 1 2.58796 23.3281 17.8129
1221 1 17.8694 6.73404 17.1254
155 1 17.2415 8.50588 -11.2002
138 1 2.60497 -4.68926 -11.1375
488 1 -10.3578 9.20038 3.44649
1451 1 4.82121 -5.90322 2.49453
298 1 17.7208 8.47772 -9.40138
1220 1 7.12001 35.4983 17.1066
694 1 -7.93939 9.77261 4.25607
783 1 -5.93571 -19.9768 -9.06782
715 1 8.61324 7.16465 5.17623
1942 1 8.14797 21.4909 3.6114
1204 1 21.5611 -4.99138 17.8513
1883 1 7.74056 8.97227 16.735
1894 1 -18.2256 8.5287 17.3479
1953 1 -5.08173 8.13346 4.58972
76 1 9.94523 22.146 4.27242
51 1 -15.8375 22.7659 3.12941
1752 1 23.7567 7.06798 3.24373
1493 1 22.9134 7.52673 4.06084
888 1 39.557 -18.1904 4.26037
1696 1 25.5681 7.62434 2.12219
1884 1 12.1738 8.2581 17.313
1808 1 11.3999 -18.7148 18.8576
1248 1 15.1514 23.2821 17.6018
1850 1 -0.270032 -18.2171 31.6151
396 1 14.2028 22.6767 -10.135
470 1 3.56772 -3.46308 4.68672
966 1 15.0443 9.28401 -8.24768
816 1 14.4516 23.7636 3.32075
1784 1 1.74308 24.1772 17.2506
1385 1 4.46084 9.7421 -10.6169
1739 1 17.5787 -3.18989 3.42117
600 1 6.26853 10.4371 3.44658
1885 1 4.36039 -3.79133 1.81255
1762 1 4.0422 9.49648 -9.55666
344 1 34.3317 -3.66537 4.03159
1967 1 33.7137 9.76678 2.54339
1587 1 5.72084 -4.79614 16.2523
656 1 22.6161 22.7857 31.9863
519 1 9.71308 -4.30341 17.3255
890 1 -6.72939 -4.52333 4.61964
1192 1 23.9139 9.51026 16.242
770 1 -4.19375 -5.82296 5.2976
419 1 11.0099 10.0465 3.24848
2043 1 12.8893 10.6575 16.4611
1088 1 -1.89235 23.8635 3.89631
1852 1 -0.572205 8.51275 17.0442
1975 1 12.8777 9.34607 -8.66914
1289 1 -0.919157 -3.41218 18.9883
1430 1 28.0877 -2.13981 -10.2027
696 1 2.82338 -2.93786 4.07689
1341 1 16.4553 11.9118 4.06009
756 1 4.80653 25.0395 -10.4422
1259 1 3.88922 10.763 16.0201
335 1 17.0066 -2.17515 5.01635
1455 1 -8.34685 23.4801 2.09328
1085 1 4.92506 -4.68847 17.3772
2021 1 -6.85849 11.3802 17.2042
1741 1 4.5352 -0.421958 30.4042
659 1 -5.47779 23.5134 3.52324
1281 1 -7.76448 -16.6249 2.43652
1646 1 8.27782 -3.74563 4.48944
1252 1 8.51572 10.4827 5.8909
1342 1 22.9827 -3.36136 18.8008
260 1 -5.39283 -2.11251 5.84686
1457 1 10.0352 23.8686 17.7183
1053 1 23.5196 -16.1012 3.60465
489 1 -2.96208 9.15711 4.08489
306 1 11.4193 -15.4913 17.1575
1440 1 10.8489 11.0099 4.21829
1522 1 13.6 38.053 3.55539
1618 1 -0.534652 10.2451 31.7799
1912 1 12.3904 -1.32011 4.04516
1230 1 -1.22257 11.5039 19.2745
492 1 12.5056 53.0685 3.0289
1662 1 2.1682 12.3591 3.4216
513 1 14.4285 -27.3187 4.0227
557 1 14.6672 -1.16709 -10.2209
2017 1 -11.3236 14.4309 17.0786
1634 1 3.0659 12.7987 29.3177
889 1 -9.33805 11.0435 17.9827
1301 1 1.62285 1.52031 3.72876
1303 1 3.09572 12.4637 -8.2718
271 1 16.6561 -0.283843 -10.281
645 1 19.6693 -12.5384 -11.4942
1355 1 -8.74469 0.522758 32.8143
1285 1 19.0939 13.8417 3.63348
856 1 5.35452 -1.72075 2.09414
578 1 5.57177 11.6808 3.98688
508 1 8.002 11.9556 17.4742
588 1 -4.72111 11.472 3.00681
1357 1 -3.92396 11.2433 4.72449
595 1 37.4369 14.0614 17.1588
1647 1 12.8947 1.49647 17.7853
785 1 25.543 -12.6168 4.46418
128 1 24.2093 -1.54208 4.31391
1360 1 0.327998 -14.5523 4.28918
1841 1 25.1532 -1.40724 -8.98123
1861 1 12.8548 12.8305 18.6913
1909 1 14.7818 -11.3717 7.12264
49 1 3.30303 0.205563 4.45929
1830 1 16.1384 -11.8299 19.9487
710 1 1.96271 15.3271 4.74533
872 1 2.08257 -13.2373 6.40189
1654 1 2.96242 3.15837 6.35224
1150 1 4.71558 14.0589 -9.28444
1787 1 5.77531 14.7331 -8.54589
539 1 6.27949 14.6477 -9.47979
590 1 4.64586 15.3356 -7.82399
1477 1 19.9466 15.6329 18.7861
1512 1 8.02802 1.91225 4.28339
214 1 19.4016 -0.303989 -7.75561
933 1 6.39656 0.600199 5.95925
1203 1 9.12731 0.910488 5.47063
1480 1 -6.03565 28.326 3.87718
1791 1 38.6091 29.081 5.36864
1950 1 35.1984 -11.866 33.1639
1548 1 -15.3037 -25.0983 -9.45336
1998 1 12.2501 1.23398 19.2682
1981 1 10.8337 17.1652 17.8064
303 1 -1.02478 14.0387 -8.68835
835 1 -13.239 -12.3365 -8.18675
1988 1 13.1209 -0.290962 20.168
1567 1 25.9245 2.52686 -8.36628
1782 1 -13.3489 30.1831 20.2119
1573 1 16.2864 -12.6445 -8.14475
1258 1 -10.5123 15.7007 4.69685
1245 1 17.3246 1.04244 18.8498
531 1 1.91637 17.151 7.7334
1171 1 18.1579 1.41394 4.58816
1878 1 18.8238 2.23901 32.5706
1268 1 2.25352 17.3867 -7.82991
582 1 -22.6997 2.84048 -7.72818
392 1 5.72937 14.7363 3.2104
1653 1 4.62655 -25.1049 20.7862
4 1 -20.4622 16.7667 -8.07581
959 1 6.95853 29.2756 3.99428
1833 1 8.54877 16.7518 18.3803
712 1 7.19869 -13.5663 4.35159
1677 1 -6.5767 14.8073 4.95284
763 1 21.3339 3.80828 5.72679
1613 1 20.3102 29.014 19.7125
1685 1 7.10739 15.9098 -6.89056
952 1 23.8261 2.56053 4.54845
92 1 8.35231 16.6554 -7.90574
308 1 7.78466 2.49249 5.07669
700 1 9.25301 3.60774 5.24474
1877 1 -3.48107 30.8724 18.7458
772 1 -3.563 3.28037 19.8793
647 1 -16.1519 -24.5799 18.5548
28 1 13.0655 2.79466 4.83663
1963 1 12.1574 17.7979 34.6255
1607 1 14.4457 1.81428 33.6992
742 1 0.0631506 17.946 -8.313
827 1 1.26845 4.20629 18.177
861 1 1.50269 4.26925 -21.6435
1661 1 1.24724 17.05 20.4772
426 1 0.703316 44.5989 5.76254
254 1 16.1837 17.4647 -8.77358
205 1 -10.3046 3.09852 5.363
1405 1 18.2869 30.7503 -8.53846
1282 1 4.68383 -23.2348 -7.45179
1390 1 32.5921 17.8671 4.84795
1467 1 31.6353 4.51215 19.1198
1519 1 21.2238 3.64602 32.1093
2041 1 19.1194 4.73751 19.3471
153 1 6.32038 17.6833 -8.30128
44 1 -5.70812 4.59865 3.01204
732 1 8.22139 18.12 18.0355
1293 1 11.4373 32.1811 4.9321
280 1 9.31145 17.6789 6.2195
1253 1 23.4889 18.1109 4.63012
1427 1 -5.1559 4.47586 5.60135
573 1 25.0693 -7.79035 4.49375
1241 1 23.0945 2.62285 19.0695
1370 1 -15.1168 5.31391 4.16226
2007 1 -0.497374 18.7421 18.6573
248 1 13.3406 18.5604 6.26621
456 1 0.713404 -9.29131 6.37047
257 1 1.6554 5.51521 -8.10172
1475 1 -12.728 5.37617 4.54758
886 1 3.2985 18.4295 -8.96932
943 1 -10.9066 -7.70397 -8.37308
386 1 -11.4367 -7.07522 17.3819
1629 1 17.6362 5.18322 20.7073
776 1 4.18013 19.3675 18.1212
43 1 17.0595 -7.79208 6.43656
1750 1 47.0485 -8.0057 3.99493
415 1 33.3839 18.9342 4.98339
1702 1 -21.4693 -8.21773 34.1686
1444 1 -6.80423 18.4168 18.1855
1423 1 -19.0383 5.35611 3.86813
89 1 10.3275 -7.46251 4.66084
1538 1 -3.39945 18.0664 31.0994
784 1 8.65326 6.31468 -21.3813
901 1 10.43 19.7995 3.648
932 1 -3.45733 5.31509 5.37665
1308 1 -1.20649 4.3691 -7.7327
1017 1 12.2051 33.7597 -9.6206
1581 1 -2.63019 6.89395 3.57124
880 1 0.445794 4.5165 -9.7807
1989 1 -27.3456 -7.53076 3.50022
1062 1 0.413676 6.19656 4.90007
143 1 0.701092 -20.1324 -8.69131
1214 1 28.5806 34.06 -9.39051
1946 1 29.189 19.7516 -8.96764
1958 1 -11.3941 21.2911 3.85934
1362 1 16.4544 7.62536 5.40639
858 1 -9.96789 20.4146 4.76594
1799 1 2.78041 -20.3631 4.55453
2038 1 -9.77902 7.87802 32.9871
340 1 4.82679 7.99593 5.06758
1547 1 19.379 -20.4435 18.6716
1391 1 6.79432 6.21795 -8.96227
1630 1 21.317 -7.05185 -8.45601
1718 1 19.7181 -7.35146 19.4867
96 1 7.25926 -6.70856 17.4286
1377 1 -4.66213 -8.6021 4.62023
56 1 -4.13269 20.6253 -8.88155
817 1 9.87145 7.26784 6.03017
1569 1 10.2171 6.29486 19.4231
171 1 -2.43016 19.4466 19.2368
672 1 11.2361 20.512 32.2714
377 1 37.7093 7.59784 4.73925
721 1 13.138 19.7913 4.44653
1042 1 12.8649 -6.82958 20.6286
691 1 0.991575 7.78217 4.15875
1061 1 -1.71206 -6.23241 4.30437
1669 1 -13.547 8.12119 5.05489
1815 1 15.1013 -5.01922 18.1694
1639 1 28.4706 8.24511 19.0627
860 1 15.5252 7.76522 4.79679
1312 1 2.15731 8.44482 19.4267
1168 1 -8.67929 6.28659 -7.2494
1529 1 -7.25312 7.41656 4.32791
1499 1 18.0519 -4.64903 5.19546
512 1 19.3789 20.9255 6.0387
642 1 20.8851 -5.49372 -9.00694
1813 1 -7.30777 -4.95187 6.33369
362 1 7.94314 -4.3699 5.14647
566 1 22.1329 -4.19489 -7.50573
1964 1 -5.99236 8.89948 20.2582
1631 1 22.0841 8.39079 -7.99439
1553 1 -4.31617 -4.53909 5.91534
1320 1 -1.43587 8.7695 5.61788
72 1 10.4265 -5.32912 -21.6245
1666 1 -2.23992 36.9659 20.2893
317 1 13.2151 -18.76 6.81568
355 1 -1.46001 -7.20389 5.18998
2042 1 11.2559 21.9442 17.8504
502 1 13.759 8.1957 4.10719
740 1 0.525756 10.1284 18.0499
733 1 12.5524 9.63544 -7.53095
222 1 0.189093 9.4008 5.33284
1675 1 15.1616 10.1582 5.85235
1972 1 28.5786 -2.33797 19.008
1876 1 17.196 23.2368 5.64979
1788 1 16.0208 23.4038 5.25457
1898 1 2.4546 10.5616 -7.3681
907 1 17.9061 -3.28771 5.61046
212 1 5.31196 -4.95296 -9.06046
466 1 4.73984 12.2884 4.41801
1983 1 20.4207 10.0185 5.34495
545 1 -9.30799 22.3644 -7.38322
1842 1 7.55542 9.98909 19.842
1179 1 6.20612 -2.28736 -8.12224
197 1 -3.81447 9.43653 4.9024
1992 1 20.8941 -2.69217 6.02068
731 1 9.66146 -3.45295 6.12141
1760 1 11.1983 -3.864 4.68771
124 1 8.24599 11.2493 -20.1239
1465 1 11.8009 -3.94803 19.1336
1472 1 -3.45137 11.0496 19.8815
1527 1 -3.34321 10.3617 5.0321
395 1 -2.32998 11.4789 -7.5417
1673 1 -2.61332 -3.1713 5.9329
669 1 -14.2964 -19.4938 5.84417
1494 1 15.6789 11.2943 17.7182
576 1 14.2663 11.2207 -9.2624
1571 1 0.130789 -3.2089 18.8772
546 1 1.46806 -3.27002 18.4543
262 1 3.27881 -2.78562 -6.82525
1263 1 4.76702 11.6032 19.5008
1394 1 3.89089 -15.4969 31.2215
1294 1 -9.38159 -1.73895 -6.77457
1201 1 17.4731 11.6251 -7.67437
964 1 5.24986 12.5305 3.50358
530 1 18.9843 -3.02698 17.6367
547 1 -8.25568 -2.77042 5.07068
851 1 20.0454 10.679 -9.11931
1584 1 21.4777 10.7987 4.12999
1759 1 18.8814 23.2621 -8.09933
147 1 48.6354 10.5315 5.09197
734 1 -6.01884 -1.75039 -6.97355
758 1 9.2778 -2.49694 5.68799
285 1 20.9074 -16.8084 7.07148
1079 1 10.9391 -14.7276 -7.98916
1590 1 9.82469 -1.47323 6.77025
1103 1 23.324 0.0617769 6.4576
1840 1 -2.63384 -2.37792 -8.5416
1858 1 12.5892 11.3441 4.32787
1333 1 9.63828 -0.42591 19.1796
1325 1 11.9798 12.9464 6.74745
1755 1 -1.58931 38.0773 6.09297
877 1 14.2364 -1.36584 18.964
1181 1 15.1628 0.500114 19.0167
1749 1 16.1141 24.418 -8.36375
638 1 28.68 -1.5186 -9.15626
567 1 2.12617 -0.329707 19.1048
406 1 16.8586 -0.298521 -7.87378
1476 1 4.06054 13.591 5.3539
1668 1 -11.4555 25.3969 18.9416
1414 1 4.20522 12.6592 5.88413
382 1 17.4407 -0.727137 17.677
1417 1 20.8163 -15.8036 18.1444
934 1 6.20903 -0.690699 3.40243
256 1 19.4821 25.8888 -8.48767
1753 1 6.01486 11.861 3.15511
1533 1 21.9994 25.8652 32.1379
198 1 -3.40214 27.9414 5.79779
273 1 23.2506 12.8239 4.47823
1102 1 8.52141 13.4877 19.0721
560 1 11.5606 27.8062 18.9053
1839 1 9.10864 -15.1451 19.2238
747 1 -3.0578 14.5532 4.7214
673 1 11.2219 13.5703 6.15937
305 1 25.6133 -0.545221 -8.05406
675 1 13.512 25.3384 -22.5288
514 1 -1.87706 -0.425494 -9.05668
1232 1 13.613 24.9548 19.6249
449 1 -2.3408 12.2148 6.71979
1172 1 14.0323 13.346 -8.45577
336 1 15.0948 27.1524 20.3971
689 1 14.6816 14.3622 -7.43107
870 1 -12.1769 -12.1979 5.64226
302 1 0.902794 28.6675 -6.14075
786 1 29.9728 -12.92 8.41036
990 1 17.2599 2.33137 -20.3168
391 1 16.7348 -13.7902 7.0555
1642 1 3.6927 14.3899 -7.22888
1086 1 3.76035 16.8957 -6.11476
38 1 3.42913 15.7596 -7.89266
1995 1 -8.09153 28.7267 6.4042
459 1 20.7381 0.946543 21.6089
789 1 5.52354 -25.4572 7.52683
575 1 19.8814 3.26431 8.18178
921 1 5.99543 2.78004 7.24916
609 1 5.55185 0.888256 -19.9606
1911 1 33.8209 0.235798 20.6365
158 1 -7.18561 1.25786 7.11721
1961 1 8.23335 -0.627766 20.5686
722 1 21.0212 14.3983 20.2245
412 1 36.3671 -0.97796 -5.0431
918 1 -5.21295 15.1939 -5.78991
181 1 8.60916 28.3707 -7.40101
1379 1 10.3695 14.9269 6.56097
1880 1 -1.4102 2.2883 -6.31673
1466 1 -2.42168 0.913386 19.7847
806 1 -2.05937 14.9808 -5.6552
663 1 13.6258 0.445925 19.5312
1973 1 13.0884 15.5941 21.6142
429 1 25.7695 0.716707 7.09085
495 1 29.3352 1.61657 -6.44641
1407 1 1.81928 0.464406 34.8572
581 1 2.13633 2.71793 20.4913
1698 1 2.84889 15.5068 7.79358
1744 1 -9.76189 17.0829 20.2392
68 1 -8.7272 17.0846 7.33181
1316 1 -8.18683 -9.58875 7.9045
941 1 7.48959 0.414795 19.2058
398 1 -6.87376 17.5168 -4.67899
1176 1 22.8514 -10.7524 6.61726
1617 1 8.56569 2.04046 20.4873
768 1 -4.24125 14.7031 6.93842
1364 1 9.46196 1.96784 -7.4247
905 1 -2.85566 2.48359 19.8276
752 1 -2.53556 1.69301 -6.69861
822 1 -15.4637 15.9401 6.26509