ITEM: TIMESTEP
130000
ITEM: NUMBER OF ATOMS
2048
ITEM: BOX BOUNDS pp pp pp
0.0000000000000000e+00 1.3679807573413575e+01
0.0000000000000000e+00 1.3679807573413575e+01
0.0000000000000000e+00 1.3679807573413575e+01
ITEM: ATOMS id type xu yu zu
1511 1 14.6454 28.7272 0.000182672
1088 1 0.477656 13.9282 1.19916
1998 1 0.124899 0.636841 14.0464
696 1 15.2622 0.739172 0.988274
2019 1 2.48875 14.8627 15.1147
2006 1 16.3633 1.0909 13.8258
291 1 -10.1358 14.6111 0.718925
1255 1 -8.01505 0.547392 14.2883
1798 1 4.5952 -13.0022 14.366
889 1 -7.09418 14.5196 14.6119
1266 1 6.69106 13.8613 13.9471
692 1 7.38196 1.1904 0.461925
1334 1 7.67195 0.263667 14.0499
1910 1 21.6126 1.45451 15.1041
1199 1 8.47341 1.27591 0.605934
800 1 -4.07336 0.215722 0.598214
418 1 9.46009 15.0313 28.1407
2036 1 -2.85469 14.4563 27.9332
591 1 11.7177 0.868609 0.968709
702 1 26.4247 27.4786 1.31229
726 1 -0.89021 14.2975 0.359086
1026 1 -25.8809 1.99804 0.705002
1807 1 0.568963 -10.8778 15.1404
1967 1 14.3006 15.4496 1.4436
1741 1 0.491994 2.40499 14.1744
999 1 2.60039 15.5834 0.792501
145 1 2.88204 16.68 13.6861
952 1 15.9965 2.82753 0.828004
1225 1 4.06043 15.2612 1.39988
1675 1 17.2902 16.0021 14.115
1860 1 4.32865 15.2719 13.721
1650 1 4.91575 15.7661 14.5666
518 1 5.96342 -10.9644 0.94378
922 1 5.91103 1.65227 14.9264
1629 1 6.83681 2.14229 15.0626
1554 1 20.8295 -10.8979 13.9133
1269 1 -7.14647 15.5497 13.9898
665 1 21.6528 15.9724 28.0456
710 1 8.90159 15.9285 1.25011
747 1 -4.82372 2.90718 0.210391
1901 1 10.0746 15.8854 27.7126
422 1 -3.18951 15.2125 -12.6187
210 1 12.1374 15.5037 -12.9797
471 1 -2.52413 2.49106 -12.8753
1921 1 -15.9858 1.797 15.1386
1721 1 24.8907 15.3519 13.8805
1456 1 12.1845 2.80349 14.8138
840 1 12.9845 16.2031 13.9988
373 1 13.2861 1.74378 14.5895
1943 1 1.33024 3.09697 14.311
772 1 0.712881 3.79112 14.8107
1218 1 0.408139 17.0551 13.8823
860 1 14.9393 4.29477 0.260246
809 1 -11.292 -9.75637 0.667172
2024 1 3.02559 3.34806 15.0017
198 1 -9.4821 17.0533 0.731718
1541 1 3.58105 3.84793 0.0315385
782 1 4.1442 4.51271 28.1836
1179 1 5.0927 3.22711 -12.5058
1075 1 6.0403 17.6301 0.813982
2025 1 5.02058 17.449 0.287174
1812 1 7.2557 -9.6492 14.2152
701 1 21.7127 3.37261 14.5501
894 1 8.1924 4.54882 13.7594
1410 1 8.50939 4.16517 1.44649
1281 1 -4.0787 -9.18629 1.2426
1920 1 9.27743 17.1944 14.7163
1245 1 10.3507 3.19513 14.7292
1955 1 -3.04688 4.23603 14.2907
1323 1 -2.43993 3.68207 1.13196
1390 1 25.3468 17.6481 13.8596
1445 1 -0.431747 17.0734 15.0676
237 1 -0.996749 3.57837 -13.2079
1276 1 -0.111667 -9.44283 -13.0633
388 1 1.24259 19.1547 14.5166
539 1 15.1876 4.59829 -12.3708
1047 1 13.8603 5.28112 14.3297
1938 1 2.9066 5.21556 15.0664
1515 1 2.25213 18.6377 0.460878
919 1 -11.0743 -7.6699 13.9092
1459 1 3.74454 -8.20059 27.652
232 1 4.3368 19.2267 1.15478
722 1 18.8688 18.2681 14.6017
1864 1 19.2743 19.3338 28.1863
321 1 4.77669 -8.53368 0.236298
896 1 7.52203 5.20351 14.332
1932 1 20.0247 -8.80186 14.2243
1319 1 6.73627 -7.61383 14.9696
475 1 7.52713 4.58835 15.1428
1513 1 6.3654 5.97635 27.4828
1989 1 -18.3465 5.49495 14.4064
553 1 8.04517 -7.79486 14.9713
677 1 9.76293 18.9772 13.7424
1162 1 10.3612 5.11908 14.6608
540 1 -3.69314 6.05096 0.858064
1055 1 11.5636 -8.68867 -13.4428
53 1 25.2707 4.88197 14.8878
703 1 12.1184 -7.81409 0.730309
1788 1 12.7736 18.795 0.799533
1491 1 14.2891 6.38177 27.87
1572 1 -12.3555 7.10705 14.4903
1980 1 15.2233 6.2392 13.8065
257 1 2.45449 7.48307 1.2097
688 1 2.25408 6.43672 1.10251
1048 1 2.57157 7.10588 13.7933
1226 1 17.5338 6.35693 0.840387
571 1 3.78727 7.43379 0.889896
455 1 -8.38092 6.35062 0.128931
741 1 4.62274 20.8302 14.0344
801 1 -8.5365 6.45627 1.33828
738 1 -7.54918 -6.84657 14.5371
1824 1 20.9877 -7.1157 14.0044
712 1 7.63321 6.75907 1.31793
949 1 -5.37701 7.4935 1.13037
1857 1 8.69509 -7.11995 14.4113
215 1 8.59933 7.46074 0.0113059
793 1 9.54939 7.53629 14.2549
606 1 24.211 7.12513 0.483493
1186 1 -2.62375 6.10115 0.9778
314 1 11.7484 7.49523 -12.9743
2 1 -0.644477 19.8843 0.628293
336 1 12.2089 20.4764 15.1717
1145 1 13.5772 7.17086 1.372
1449 1 0.373939 7.96493 0.697008
917 1 14.3181 -4.6714 0.476422
444 1 -13.4172 -4.9449 1.46463
611 1 1.57665 8.61051 1.12516
1593 1 15.5575 7.96772 27.7586
1292 1 17.5629 8.99182 28.0353
1363 1 -9.24327 -5.30251 1.49982
694 1 3.04355 8.35943 0.645492
1340 1 4.75724 8.44648 27.8412
839 1 5.56005 7.66682 14.0247
1036 1 5.53783 8.43894 14.9056
217 1 19.6832 22.5333 0.354989
1731 1 -6.69818 22.3962 13.7043
744 1 7.46879 8.14992 15.0344
924 1 6.49119 -5.53544 14.6705
1232 1 8.35082 22.1349 14.3433
438 1 23.9645 8.29625 0.388805
392 1 -3.35823 8.82525 1.32885
1408 1 9.38436 8.56844 14.6361
811 1 11.1302 -19.2396 1.20317
1744 1 -2.82721 9.0915 13.681
357 1 12.0949 8.39702 1.33905
404 1 11.3749 8.17561 13.7445
1690 1 -0.355606 8.58087 0.469179
903 1 -0.938834 7.82391 14.1099
2010 1 13.0741 21.6822 1.32155
42 1 -15.1238 8.87367 13.8867
274 1 0.501892 -3.93873 -12.2111
1167 1 -13.0368 -3.58242 0.265991
1844 1 1.46028 -4.06333 14.5067
698 1 43.6886 23.0222 0.927287
728 1 2.04978 24.1773 0.471829
771 1 16.8947 10.4188 14.3517
748 1 -9.67522 9.92244 1.31962
1309 1 4.06391 -3.47701 13.9271
350 1 32.3963 -3.90884 0.897724
147 1 33.4953 10.0099 14.9384
325 1 6.6184 -3.95164 0.287312
2030 1 7.51865 -4.53171 14.534
549 1 -6.22283 -3.41944 0.857463
1664 1 22.6036 23.2219 -12.3598
331 1 8.73333 9.28254 -13.3882
577 1 9.8053 22.9497 0.187469
1365 1 10.5519 9.81844 0.896069
1691 1 -4.14577 10.2169 0.527709
1320 1 -2.01242 9.65364 0.837234
86 1 40.0045 -4.40191 1.10501
932 1 -0.214622 9.61264 0.688909
1101 1 12.6167 -3.34922 14.4072
1332 1 14.8294 -2.57398 13.7708
977 1 14.7266 10.8401 1.23857
1261 1 0.976231 12.085 0.569028
652 1 2.72441 11.4122 -13.0469
1370 1 -9.91753 -1.76914 13.7431
1944 1 17.0919 12.0946 1.31765
1471 1 3.9739 -2.54173 14.6905
1536 1 5.06675 10.8091 0.740413
1630 1 21.078 -2.43055 0.277393
92 1 20.3293 12.1401 -12.6792
1679 1 20.2002 11.0442 15.0514
378 1 19.8483 -2.13424 0.264428
1300 1 8.53386 -2.99546 13.9144
328 1 -5.40162 10.657 14.8979
1624 1 8.37225 -2.09459 14.4764
1402 1 23.4001 -2.56894 13.7011
369 1 9.60923 11.2019 14.787
1561 1 -3.21519 10.8648 14.4023
1766 1 9.23828 12.1313 14.4867
1017 1 -2.95344 25.4136 0.168041
1702 1 -15.6954 -2.8331 14.1561
1431 1 10.7927 11.6201 15.0299
1958 1 -1.87295 11.1374 15.0963
837 1 -0.325702 -2.86765 0.197012
1436 1 26.2212 11.3957 27.8403
750 1 -0.130976 10.7708 1.21452
1457 1 1.35396 27.0598 14.1868
72 1 0.397544 -14.2708 0.609977
205 1 -11.6596 13.5635 1.4289
1442 1 2.80008 12.4444 14.1094
644 1 -11.8458 -1.1484 14.6905
39 1 2.9989 -0.603086 1.36398
44 1 -10.4205 -0.0610294 0.455864
1638 1 4.29193 13.0336 14.2807
1521 1 5.00835 -0.000218156 15.0171
1972 1 18.7979 -1.11454 14.587
1552 1 -8.4205 -0.522387 13.7042
875 1 7.0718 -0.539963 14.7446
349 1 19.7801 -0.649314 14.2344
139 1 8.80806 12.9339 -13.3829
1196 1 -5.70281 12.5389 0.75552
870 1 -19.01 -0.124102 14.6965
1305 1 -3.07806 -0.216951 0.993816
1015 1 -3.25021 12.4542 0.923538
1377 1 -4.05452 -0.683136 1.26996
1866 1 11.6556 -15.1944 14.5004
929 1 -2.06652 -0.407704 0.710696
1428 1 12.3745 12.6871 1.2465
822 1 -14.9931 13.0377 0.171489
1369 1 -0.391026 12.3473 0.437718
1514 1 13.3603 -0.639568 15.0391
358 1 0.295974 0.933946 16.2749
853 1 15.1618 1.21635 2.22884
557 1 14.7612 0.221432 -11.5943
1684 1 1.99359 0.383376 16.4461
960 1 16.6661 27.9475 29.5363
1508 1 2.25108 15.047 3.03459
172 1 4.17621 14.4226 2.06513
1879 1 18.5441 1.43203 15.5507
1262 1 -7.96405 0.750072 15.4181
1478 1 5.22625 14.0486 30.1242
1678 1 -8.52931 1.41704 2.82066
307 1 7.20908 1.50002 15.8922
335 1 6.23921 1.30302 2.77563
1407 1 6.78416 0.338032 30.0675
236 1 7.27003 0.412443 1.57799
861 1 9.04759 1.36075 -11.7093
1112 1 -5.35052 0.551621 1.81397
333 1 21.467 0.798079 2.67779
1544 1 9.96873 0.258759 15.4332
412 1 23.6716 1.26765 -11.1151
170 1 10.4762 0.372732 -10.8896
1414 1 -2.77966 14.4172 1.77909
1057 1 -0.530534 -12.6654 15.3827
1840 1 -1.40896 1.39368 2.01187
773 1 12.7017 0.318203 2.48794
1768 1 1.04346 16.0429 16.0472
1718 1 29.5578 2.20378 15.4812
1230 1 3.23105 15.9733 15.2153
1523 1 17.7013 2.012 16.1877
687 1 16.7203 1.5863 15.9556
1477 1 16.8917 16.6125 16.2943
1085 1 4.10914 -10.8332 15.2519
804 1 4.94066 2.59715 15.8958
520 1 -7.84552 -10.6651 2.96345
913 1 19.8506 2.20731 15.9605
574 1 7.61755 2.79413 1.67026
954 1 8.11405 15.5531 -11.1683
1612 1 -4.66104 2.35372 15.9604
400 1 -5.78477 16.6074 16.4177
174 1 10.0933 16.3243 16.4891
980 1 9.84884 15.8561 -12.1155
317 1 -1.56677 -11.3661 2.44244
1781 1 11.4013 15.2638 2.63924
1209 1 -2.91052 2.49477 1.98686
1461 1 -0.0212025 1.91312 15.9441
1077 1 12.7773 -11.3652 1.75822
646 1 -0.548254 2.91578 16.1531
241 1 0.266828 3.52628 2.31599
1486 1 14.8743 16.9196 16.6151
1600 1 14.5328 4.30284 15.748
654 1 2.51252 31.291 -11.127
1352 1 -12.1445 16.9611 1.74458
581 1 3.32289 4.3961 29.0269
1124 1 3.83604 3.61391 29.5526
1056 1 3.61485 4.14819 16.7153
1185 1 -7.83732 3.52561 1.90988
1064 1 6.00232 4.46887 1.66537
1665 1 4.80949 4.00431 1.9774
617 1 4.82081 4.00555 -10.6994
1358 1 -6.88886 3.89352 1.54354
1090 1 -7.00606 4.27728 16.4982
159 1 6.78424 16.8395 16.1158
1180 1 21.4293 17.3848 15.6689
225 1 -18.846 -10.5291 1.77916
1473 1 22.144 31.4884 2.63343
211 1 -4.2537 4.41934 -11.4552
891 1 23.3907 17.0984 15.5687
1153 1 9.16584 -10.5396 2.97224
1855 1 11.5471 16.8141 15.7603
1115 1 -3.00539 -9.32394 16.5425
1716 1 11.1086 -10.3545 2.90053
1304 1 10.7172 -9.97884 1.9019
928 1 -2.02217 4.29072 16.303
997 1 -1.26768 31.2903 1.74745
974 1 -0.388319 17.8448 2.75549
1749 1 13.3493 18.1028 1.78359
1157 1 12.2763 3.46328 2.8762
613 1 1.35108 -8.44606 -10.9382
1432 1 14.2312 18.9155 -12.0121
1872 1 -12.9498 6.03636 2.44315
234 1 2.12285 4.75458 2.14561
525 1 2.50631 5.86581 3.02644
1828 1 3.05275 18.6816 2.6834
1155 1 4.10421 4.79979 2.33759
424 1 -10.3381 5.97472 1.89463
446 1 17.5101 5.79686 -10.8933
1890 1 5.09887 -8.45184 1.77183
756 1 5.84721 18.6234 2.56677
1761 1 5.16575 6.02284 16.5234
1509 1 6.62116 5.19281 1.79803
162 1 7.56268 4.66245 -11.1328
108 1 6.5754 5.89593 16.698
1392 1 8.87205 5.14341 15.4076
107 1 8.11736 5.51299 2.27893
1701 1 -3.94225 18.8551 2.85811
129 1 23.5668 5.42509 1.8823
1455 1 -2.81411 18.6888 1.96949
1395 1 11.3869 18.9116 16.4189
1497 1 11.6165 6.00352 2.00304
1002 1 12.5557 18.8955 15.733
1904 1 -0.364308 19.3077 16.3247
1743 1 0.804351 20.5247 1.77308
1315 1 -12.5226 7.26531 2.92924
682 1 0.0927563 6.90663 2.54171
550 1 0.06385 -7.56758 15.3619
515 1 1.90202 -6.9349 15.8199
1527 1 2.52454 7.54762 2.68021
1954 1 18.1659 6.15949 15.6601
774 1 16.9733 -6.60154 15.6577
1373 1 4.37937 -6.57783 29.0441
131 1 3.21867 6.63019 -10.6484
1888 1 6.00222 6.2868 2.14503
1060 1 -8.16063 7.54149 1.64193
1430 1 18.8161 6.98818 -11.2541
193 1 -6.40672 6.1289 -11.5633
931 1 6.62531 20.9109 1.93487
1331 1 -6.10348 -6.25391 2.15943
417 1 -6.62384 20.5282 2.95554
729 1 8.19659 6.51404 15.8751
428 1 -4.65048 21.0949 1.83691
315 1 9.13785 19.7713 1.57038
1586 1 -3.5954 7.56819 15.4143
1848 1 10.0119 20.9649 2.79686
1805 1 23.8764 6.55159 1.83548
849 1 9.32991 -7.18701 2.46048
630 1 11.0797 -6.65353 15.2997
405 1 -1.66856 20.7561 -10.7083
384 1 -2.70305 7.42685 2.52483
459 1 11.9809 7.54811 15.7437
1847 1 11.032 6.48874 16.414
14 1 12.757 -7.11197 2.35654
1581 1 15.08 7.77515 1.76722
1622 1 0.091923 7.90041 15.7358
150 1 1.28722 8.85914 -11.5069
742 1 2.15502 8.71139 -10.8344
2021 1 -11.2732 8.23445 15.5401
781 1 17.1061 -19.203 2.22179
1005 1 4.20515 7.64419 16.2492
695 1 16.8799 9.04756 2.8039
1975 1 18.7449 21.9695 2.20757
1569 1 6.52987 -4.64715 15.2017
300 1 -7.4733 8.21953 -11.5977
15 1 6.97601 -5.85005 16.6486
491 1 -6.36811 22.7974 -11.3078
442 1 33.5455 -4.86432 -10.6783
825 1 22.1481 8.48996 1.73119
1126 1 -3.37241 8.24928 16.167
355 1 -4.32889 8.31128 2.82858
685 1 -2.35721 8.53665 2.35099
527 1 12.9368 -6.0655 2.55857
430 1 -0.874354 22.3621 15.7401
966 1 -1.44798 21.8918 2.97367
332 1 0.196276 9.13879 2.34985
1462 1 0.547433 10.078 -11.2491
1659 1 1.42666 9.63311 3.0027
1013 1 16.0885 23.0579 1.97351
987 1 1.99794 10.199 -12.148
511 1 17.0152 9.154 1.66367
679 1 3.53168 9.97494 2.45391
375 1 16.8041 10.5123 15.3207
1537 1 17.9849 -4.55783 15.8675
1031 1 -8.42896 -4.34159 -11.7009
1302 1 19.5967 10.0864 2.29949
900 1 5.08934 -3.14389 15.5419
951 1 -9.10536 10.1621 16.605
1293 1 20.6015 23.6315 1.96537
16 1 7.9421 9.79071 15.3324
583 1 8.4542 -4.43239 2.53037
1503 1 35.0399 9.92063 16.5547
20 1 8.50032 -3.21169 2.22802
760 1 10.0037 10.1964 15.363
397 1 9.6912 9.22423 16.1032
288 1 10.6338 -3.18419 16.3175
1257 1 23.3628 24.0576 16.4996
513 1 24.775 -16.9234 1.53708
348 1 -1.70935 9.2756 1.96502
1911 1 25.304 -3.40088 16.0993
1656 1 10.8461 -4.01276 2.13925
401 1 12.9329 23.3417 2.8488
1311 1 13.2336 -17.4714 15.486
221 1 12.3739 10.3207 1.80346
1776 1 13.9448 11.9445 28.8852
280 1 1.44096 10.6501 2.43354
334 1 0.36576 11.1029 2.15408
585 1 1.36955 11.8751 29.1427
855 1 2.20135 -2.45496 15.2172
1804 1 2.09755 -1.98883 16.2626
663 1 16.3138 -2.86671 16.6772
1136 1 4.19321 11.1752 2.01728
547 1 -10.3152 -1.97864 2.34476
661 1 4.22889 25.7409 2.97831
1040 1 5.59369 -2.61507 2.60008
1140 1 5.53899 -1.89566 1.6238
1724 1 20.2807 24.5044 16.4965
662 1 7.48291 24.5984 29.3784
1213 1 6.48974 11.6707 15.8909
88 1 7.79448 -1.70944 1.68611
229 1 -4.7593 25.186 -11.9054
203 1 -5.26932 12.0279 16.2077
1881 1 9.66922 11.3306 16.0733
1566 1 9.86097 -1.59239 29.0944
1312 1 10.9087 11.5203 16.0392
27 1 -1.43463 -1.84188 -11.0961
1376 1 -1.10767 -2.83837 2.70484
1364 1 13.5309 -1.80317 -11.042
713 1 12.725 25.338 1.65794
1770 1 14.4798 -1.36881 16.2908
1114 1 0.98421 -0.645759 1.58874
313 1 27.9741 13.3817 2.79361
395 1 2.58178 12.2478 1.9266
494 1 2.6988 13.1543 -11.27
737 1 -11.9976 12.8518 16.3049
1757 1 4.33486 -1.26536 1.5517
253 1 -9.62647 -0.28741 1.62004
371 1 -10.0796 12.8896 2.55499
578 1 5.54115 12.8117 1.94184
374 1 18.8986 12.1619 -10.8661
516 1 18.3444 -14.3478 -11.2477
2040 1 6.86418 12.6675 15.6964
140 1 20.0578 27.322 1.75522
684 1 21.1342 25.9164 2.93092
260 1 -5.80914 -0.45358 1.96593
468 1 8.95245 13.3856 -11.4687
1198 1 8.62306 26.2588 1.60915
1240 1 9.37517 -1.40898 16.4139
1417 1 10.6142 -14.4285 15.7292
899 1 -1.5656 12.964 29.9116
1242 1 11.7179 -1.45619 15.5036
1435 1 -2.54785 13.2355 3.03262
1468 1 11.4332 13.4927 15.5159
1466 1 13.6001 -0.0135935 15.8808
111 1 -0.373068 12.7386 -11.3996
1087 1 14.8082 14.1238 17.0284
1496 1 14.4557 0.417557 17.9147
259 1 -12.7472 28.8533 -10.3341
235 1 0.202846 15.0704 -9.52683
2041 1 15.9846 0.656113 17.6408
959 1 3.6995 27.6708 3.05497
466 1 3.55217 0.535241 4.1863
200 1 -9.76703 14.9285 3.33872
2002 1 -10.3087 15.1844 17.8538
1287 1 -9.0035 0.574723 3.70709
1839 1 5.84373 -12.8577 17.2708
1823 1 7.5311 27.4186 4.15021
532 1 20.2621 0.00670731 3.76628
269 1 -6.65971 1.06632 -10.1037
1645 1 -5.10947 0.185373 -10.5451
89 1 8.14038 1.00846 3.72841
1974 1 22.5116 1.38449 18.0951
876 1 9.25587 28.187 3.74818
45 1 10.3475 14.2777 -9.68021
637 1 -1.90611 0.516743 3.1756
379 1 -2.17585 14.4248 4.17486
1542 1 -0.188345 0.343584 3.19052
1481 1 -1.47003 15.0497 3.58537
1584 1 12.7639 14.0874 4.2851
1099 1 13.949 -11.0755 3.50716
102 1 1.09144 15.8206 -9.41429
1574 1 1.62522 2.20476 30.6752
912 1 2.36106 15.681 -9.66662
1609 1 2.5039 2.99369 17.1371
614 1 4.13029 2.9773 16.9002
1453 1 -10.5818 15.783 3.31495
1814 1 3.16577 16.2496 17.9942
1361 1 4.55486 -11.6763 3.91632
920 1 5.75852 2.11417 3.47114
836 1 18.6429 3.01547 3.89168
1545 1 5.54838 15.3331 18.1041
81 1 6.71892 2.24581 3.1656
1433 1 7.05577 2.57907 17.8537
1767 1 7.8223 15.8837 17.1144
1825 1 -18.4077 2.2136 3.34173
657 1 -6.05127 15.3861 4.27586
1362 1 9.65511 2.11232 4.02734
34 1 -4.43776 16.7056 4.43511
1193 1 10.3984 15.304 18.1556
458 1 -3.05603 16.4645 3.81234
1597 1 11.0055 1.5373 3.60162
909 1 11.5688 16.1274 -10.423
206 1 -1.88021 15.7687 4.13769
1260 1 -0.536994 15.262 16.7482
1282 1 12.8691 -12.0576 -9.2247
1733 1 -1.0916 29.7782 3.62871
1830 1 14.1254 -9.96582 17.42
790 1 1.21621 4.16628 -9.47341
1228 1 1.31315 4.2933 3.2171
1244 1 1.57529 16.9301 3.93246
1889 1 2.5904 17.574 17.9842
651 1 3.43958 17.2129 -9.7551
1032 1 -9.56662 4.32505 4.08231
1696 1 19.7031 3.93108 3.63402
531 1 5.25705 4.00989 4.32522
982 1 6.11386 16.8216 4.20493
868 1 -6.38069 3.73406 17.0845
911 1 8.43454 3.52157 17.3448
1692 1 22.8458 17.8326 18.186
986 1 10.4977 3.7989 18.1742
1810 1 9.94815 3.93371 17.1723
597 1 11.5856 3.40025 3.78889
2001 1 -0.68318 -10.2229 3.76989
394 1 -0.473731 4.49913 3.81811
453 1 -13.1942 18.5756 4.28254
1149 1 0.285125 5.09661 3.21959
1884 1 14.6834 19.5577 18.1668
1066 1 15.1832 -8.41727 3.7104
1886 1 16.0386 18.3148 17.1605
1051 1 29.7436 5.54126 4.29696
1144 1 4.45774 -8.6385 3.44075
633 1 16.8125 18.5081 -9.2959
1859 1 3.17415 5.41852 17.2814
714 1 -7.60578 18.9267 18.0528
655 1 5.32562 19.5246 -9.59476
1578 1 19.1951 -8.87962 3.46953
1058 1 7.5122 5.51502 16.8335
1027 1 6.92879 4.62613 3.81173
1177 1 20.6472 5.75445 17.8934
216 1 9.00839 18.2974 3.4609
797 1 8.0316 4.57866 -9.97671
1464 1 -4.64115 5.83119 30.6617
560 1 8.17916 19.5907 17.8245
1996 1 -3.0896 18.2751 17.6208
649 1 9.86774 5.22232 17.9073
47 1 -1.68215 -7.73206 -10.3907
827 1 10.9665 -8.09474 17.2437
1379 1 -2.01889 4.59777 3.83929
1611 1 12.4624 -8.7505 16.8386
1141 1 13.2059 19.5855 3.56095
376 1 13.6195 5.74343 18.1227
634 1 12.3894 5.23885 -9.43829
1444 1 0.595221 20.2915 17.3033
582 1 -12.3002 7.05867 -9.51916
1703 1 -12.2342 -7.45823 3.17513
1669 1 -11.1623 6.81021 3.95043
1946 1 30.6913 7.55279 3.46451
706 1 4.24527 6.75113 -10.5871
309 1 4.17567 -7.50727 3.94922
1078 1 17.9539 20.9454 4.40045
1738 1 5.8814 6.63491 16.9005
484 1 5.09349 7.22882 3.73002
249 1 6.68933 20.9135 4.00857
440 1 21.2455 6.62312 4.42618
1202 1 21.6687 7.22525 17.2327
683 1 9.07135 7.21901 3.25669
299 1 9.25433 6.50083 -23.3697
1415 1 -3.5865 6.0949 3.17661
721 1 9.77954 21.2229 17.5559
1519 1 10.3769 20.1952 17.7735
908 1 11.0259 7.08493 3.5887
815 1 -1.6037 7.17059 4.07368
1787 1 11.627 6.22554 4.22578
693 1 -0.044095 -6.87025 -9.27897
1873 1 -1.02762 6.25495 18.1094
426 1 -0.534285 20.6198 3.33596
1403 1 0.205745 7.61522 3.84095
1829 1 1.3543 -4.72625 3.7872
1139 1 0.978768 -5.36902 3.05398
1981 1 14.0871 8.68124 17.8415
1080 1 1.94085 -5.82824 17.1664
1838 1 2.87962 8.51454 -10.0303
312 1 3.96482 8.25345 17.621
798 1 5.85209 7.73823 -10.431
48 1 5.50397 8.76841 4.00945
1406 1 31.9722 8.4592 3.19031
1450 1 7.45784 8.56829 4.21876
1495 1 6.47662 21.9832 -9.70425
1842 1 7.20753 9.09108 17.1216
362 1 7.9563 -5.34283 3.35163
490 1 -3.60002 22.1775 -23.8308
1694 1 9.20234 -5.08658 17.7584
1192 1 24.821 9.11505 17.4185
1159 1 -1.93907 -19.075 4.01626
266 1 -2.64325 -5.49303 16.9091
1850 1 10.696 -5.68417 17.9905
127 1 13.4938 22.1137 -10.5721
1625 1 -0.904444 7.83057 3.87062
1093 1 12.845 -4.88466 17.7604
310 1 0.305624 9.41474 3.26899
1072 1 1.3712 -3.64318 3.91125
2007 1 -11.2508 9.70233 16.8346
935 1 15.9407 9.24767 4.38
859 1 16.3437 -3.43303 17.7807
368 1 3.33724 9.29979 4.06181
1475 1 -9.42882 9.33163 17.0919
78 1 3.62816 -3.54008 -10.1286
1792 1 5.31892 23.0462 16.7487
1142 1 -8.64553 -4.12122 4.46498
340 1 4.61975 10.2877 3.91011
354 1 -8.10629 10.4042 17.0421
1023 1 20.6848 24.1786 -9.80362
28 1 6.48803 9.35212 4.03266
1271 1 6.49252 9.89999 16.894
168 1 8.37901 -3.26487 3.77472
1128 1 8.61821 -4.2633 17.9506
2035 1 -5.95775 9.93259 4.51129
1907 1 10.4186 23.4274 3.40487
1152 1 9.24188 9.62186 17.2258
994 1 -3.77967 -3.74969 4.26889
1522 1 11.0033 23.8552 4.42592
258 1 12.0471 9.1986 -10.5176
1043 1 -2.08852 -3.38155 3.47337
711 1 -0.0514049 10.4056 3.13347
1307 1 -0.422432 9.88022 3.97369
1785 1 12.3698 10.5965 17.6859
1774 1 0.494925 24.8485 17.0773
521 1 15.3703 -1.53963 3.50737
58 1 16.3045 -2.27769 -9.56801
1722 1 29.0702 11.1222 3.56833
239 1 4.0791 11.9541 4.28763
1928 1 -9.97998 10.8916 4.37687
576 1 3.71994 -2.62458 3.30378
1223 1 4.791 -2.33523 3.4151
295 1 -7.56382 11.2337 4.04426
1869 1 6.91354 25.3932 17.3423
2027 1 7.68257 -2.54831 3.062
1687 1 -5.13575 11.4994 30.7429
1801 1 -4.30897 10.8051 3.69519
18 1 -3.74642 11.5709 -10.3359
1968 1 -3.54336 24.9706 18.1513
1283 1 11.7487 -1.89299 4.09576
1357 1 -2.18221 11.2652 3.25452
1559 1 -0.152619 -1.65182 18.0639
84 1 12.8639 -2.00371 3.55727
933 1 0.0971328 12.6244 -10.2929
1646 1 1.0598 -14.2226 -9.81948
2018 1 2.13943 13.2853 17.1532
1652 1 -11.2155 -1.06668 4.256
942 1 15.4345 -0.00463275 4.53407
134 1 4.47407 13.2847 -10.2674
1826 1 3.34318 13.1253 17.4812
602 1 3.32683 -1.49802 3.36836
1591 1 4.72965 -0.210646 4.44521
1560 1 -8.69617 -1.21717 4.1669
294 1 -8.06358 13.4766 17.326
2009 1 -7.4264 12.8677 3.07296
664 1 6.08087 25.9562 -9.74196
98 1 -6.30841 -0.914501 3.89071
1708 1 -5.43095 12.2826 4.10803
65 1 7.62152 13.2345 16.8112
1649 1 22.4014 12.7955 30.6529
324 1 -3.43835 -0.956749 -10.6276
74 1 -4.24468 12.2425 17.6177
346 1 -3.65043 -14.1078 -9.6731
406 1 9.42623 -0.235112 -10.5566
1712 1 -2.603 12.4274 3.78084
167 1 -2.59211 13.4545 4.04589
1483 1 -1.55572 27.1599 31.2622
635 1 27.2974 -0.185426 4.19089
1163 1 -0.89081 12.8621 -9.23115
886 1 12.6104 12.6221 -10.2952
765 1 1.44043 14.8584 18.3527
718 1 0.593275 14.3075 19.1272
1674 1 1.88114 0.238492 5.67594
265 1 -11.3199 0.923875 5.00887
1538 1 2.89156 13.9125 19.3526
184 1 1.67197 14.9598 5.88052
1297 1 4.22611 0.42407 5.68804
1028 1 3.40296 1.01546 5.2358
1104 1 19.4538 1.31771 -8.25863
41 1 -8.12154 -13.2473 4.57628
979 1 18.4585 14.6888 18.563
1769 1 6.59122 28.1755 18.2577
620 1 6.81362 0.743831 19.3559
103 1 -21.0144 -13.6548 -8.30349
1794 1 7.71486 0.280699 5.72587
488 1 -5.13325 13.9274 4.58154
433 1 -5.94658 14.457 4.88534
882 1 22.2853 0.849847 5.47504
1335 1 9.72194 0.921501 18.4623
759 1 -4.24832 13.8083 19.366
590 1 10.9985 14.4865 -8.57449
1259 1 -2.64676 13.8568 6.03016
1237 1 11.8471 27.6039 5.25382
1753 1 -0.168064 15.0036 5.26252
240 1 12.6282 14.4981 18.9327
252 1 13.7403 16.2693 5.68416
514 1 0.0799322 2.36002 -9.06497
1969 1 14.4841 15.5081 18.9345
1220 1 14.9061 30.2653 19.3504
720 1 0.836579 3.02182 4.70601
1530 1 2.79448 30.2875 5.2531
461 1 -10.8591 15.5787 5.26896
1631 1 15.4284 2.11172 -8.73217
262 1 3.82075 2.43684 -8.58662
1939 1 4.54266 2.76753 19.6408
580 1 4.85273 16.0201 4.88972
873 1 5.88017 15.8932 6.07135
1987 1 -9.04516 15.324 19.3974
668 1 6.72845 15.5422 5.25694
248 1 21.15 16.3683 5.09975
133 1 -4.83149 15.602 5.88782
1813 1 -5.48049 1.92676 5.12179
1856 1 8.5299 2.97832 18.9939
503 1 -4.21729 16.5106 5.9652
1871 1 -4.16425 -11.6583 18.792
1507 1 -3.13662 15.3711 19.2148
880 1 10.1957 16.6423 -8.53203
1241 1 24.7247 16.2563 18.4332
2026 1 -1.89158 1.53867 18.8043
538 1 -2.10344 29.6947 -7.81295
573 1 26.2759 -11.4529 5.68836
2015 1 26.4158 16.41 4.56763
120 1 14.3374 3.99797 -8.49338
1562 1 16.4716 -9.78046 19.5686
1877 1 1.99604 17.1944 19.0264
483 1 4.29506 3.37306 4.6241
148 1 3.67382 17.0232 5.90226
739 1 3.88908 31.8835 6.07413
1663 1 17.9581 4.33372 -8.5974
1729 1 3.328 17.5063 32.3925
2008 1 5.16442 3.27261 5.12011
298 1 5.62118 3.33626 -7.66926
579 1 20.0246 3.07332 5.24107
806 1 6.35233 4.25867 4.78968
425 1 7.26564 4.49972 -8.03371
1734 1 7.16468 17.2184 4.60687
477 1 33.5883 17.7318 19.5114
565 1 7.34464 17.1133 5.96339
1960 1 -5.52955 17.5789 4.91519
5 1 10.158 -9.3753 -8.31331
242 1 9.40641 3.53141 -8.3855
1858 1 9.20019 4.38062 5.83664
1327 1 -2.36845 3.79403 5.92502
569 1 11.8992 3.05965 5.24153
177 1 -2.32957 -9.59114 5.04699
1550 1 12.7687 3.28119 5.73307
955 1 -1.44785 4.0328 -9.00839
1205 1 -0.370111 17.7756 19.0247
964 1 -1.3908 18.1778 5.5388
128 1 15.02 4.92297 5.04199
735 1 0.10476 5.00168 5.59
1203 1 1.48005 5.82086 5.61067
110 1 27.9011 5.97504 -7.72625
1912 1 2.64583 5.77204 19.105
1012 1 2.20272 18.6514 5.95634
595 1 29.7036 4.63428 18.7059
1236 1 4.4965 18.8803 4.60764
1089 1 4.14579 6.02476 18.9735
152 1 3.37728 5.89716 4.62962
1070 1 3.32866 -8.61258 19.0117
1181 1 5.42529 4.70817 18.745
1127 1 -8.27892 5.69879 5.18888
764 1 18.339 32.4539 5.77616
419 1 7.51998 4.79461 4.63663
976 1 -7.16087 5.33583 -8.1742
1698 1 -6.14052 5.81577 18.8863
82 1 8.50861 -8.76599 4.57852
502 1 22.1031 18.9704 5.58803
690 1 9.42294 5.19013 -8.44319
862 1 9.91222 -7.624 4.84551
1344 1 23.7238 -7.92996 5.92006
1739 1 11.8404 -8.22184 5.15778
763 1 24.4654 -8.57669 -8.83592
1416 1 11.0661 4.86569 5.81698
12 1 -0.745568 18.725 5.06478
1249 1 12.4136 19.3142 5.95924
1706 1 -12.6803 6.73263 5.17417
1158 1 29.6692 7.48163 4.95989
1452 1 15.6704 6.37855 4.80067
1583 1 -11.1195 20.6853 19.5346
1233 1 17.3986 -6.56294 -8.34211
1049 1 -10.3406 -7.40563 5.86649
1360 1 5.71167 -6.23603 4.56142
1168 1 5.05071 6.56798 4.67966
1736 1 5.77522 20.6472 19.5321
1543 1 -8.74732 -7.39319 5.94765
1328 1 6.14333 6.28641 4.90844
403 1 6.62551 20.9484 5.14246
1161 1 -6.96858 6.34272 19.4785
1988 1 8.55781 6.1807 18.709
609 1 7.95036 -6.85123 -7.97707
1229 1 8.55003 7.21756 4.98813
472 1 10.3463 7.43497 5.5195
1422 1 -3.98906 7.01732 18.5134
1368 1 36.598 6.48013 19.4698
1492 1 24.4951 -20.9508 18.799
993 1 -2.31628 7.57253 -8.80354
883 1 11.3683 6.08105 5.97809
37 1 -0.281826 7.20364 -8.16465
972 1 -14.1632 19.7623 5.48548
1502 1 12.251 20.5635 18.8606
777 1 0.644617 -5.99619 4.84595
866 1 -12.8604 -4.81432 5.10813
831 1 15.2446 -5.52536 4.56317
1773 1 2.96174 -5.60251 5.94477
1626 1 15.2162 -19.6931 19.4706
1113 1 2.27242 22.5915 19.0064
1846 1 3.34329 7.85344 4.84498
1156 1 -9.63535 21.7101 -7.94285
1935 1 17.0879 8.83719 18.6756
643 1 -9.10453 -5.07291 4.80452
192 1 18.7378 7.65278 -8.20021
700 1 19.1122 8.83273 5.35468
975 1 7.55792 7.68256 18.542
1816 1 20.5313 8.78001 5.03962
1720 1 7.22624 7.92977 5.79594
1914 1 20.1212 8.56122 5.89164
1263 1 8.40838 8.19058 4.83476
1568 1 7.8986 8.97037 18.7913
554 1 21.7128 -5.1318 6.03394
109 1 24.0794 -4.75029 4.60972
1389 1 -17.7288 21.7099 -8.83487
1007 1 -3.5799 8.49691 -7.97219
915 1 9.12272 7.69284 5.79618
473 1 11.0955 -5.12515 -22.0757
454 1 -1.59306 21.5402 5.81583
345 1 13.5708 22.0382 5.74594
1520 1 -1.37675 8.89482 19.3545
1556 1 13.3871 9.05496 18.8074
950 1 -0.335217 8.00808 -8.94254
814 1 -1.39225 -5.53662 -22.503
523 1 14.2912 9.70185 18.276
1771 1 15.0224 9.6017 -7.99358
1105 1 1.9659 -3.28164 -8.79883
2042 1 16.0089 23.5278 19.4641
1265 1 4.05849 23.4282 18.2991
1905 1 30.4668 9.79114 18.7059
1672 1 3.7021 10.2449 5.69385
2043 1 18.5405 9.63568 5.57136
1662 1 6.01895 9.78198 4.96819
254 1 19.0531 10.5479 -9.01501
623 1 20.6119 -3.10301 4.91948
627 1 6.95123 9.71937 5.65099
501 1 -5.27854 23.8762 -8.23124
1525 1 8.95768 10.5883 4.64695
1959 1 -4.14763 22.8482 5.15376
1006 1 -4.12822 23.8298 19.1359
1129 1 10.512 -4.03285 -8.42643
10 1 11.4328 9.2017 -9.02856
1289 1 -2.28301 -3.66039 5.44269
1359 1 -0.230042 10.047 19.3071
1409 1 -1.33423 9.61242 18.3885
370 1 12.4448 23.6106 6.0384
153 1 0.982649 10.8759 -9.02368
1977 1 0.435335 11.0848 32.8778
1573 1 1.75521 -1.78304 -8.8448
480 1 15.6133 11.1308 5.64928
1434 1 16.6095 -2.77892 5.75748
1267 1 2.96064 11.9748 -8.72941
1482 1 -9.60146 -2.11073 5.33268
1997 1 -8.73974 11.4922 18.3393
725 1 -7.7911 25.4315 4.95476
838 1 4.64718 -2.97042 -8.2283
1526 1 -6.40553 -1.73186 18.385
1608 1 -7.41712 -3.00254 19.5072
1681 1 -20.5442 11.6997 5.57313
1234 1 -6.1931 10.878 5.94399
306 1 9.07889 -2.04899 4.75861
399 1 -18.8781 11.2619 -7.88629
796 1 -5.77552 -16.194 4.72994
905 1 -5.46314 -1.54652 5.13315
1258 1 -17.8347 11.9725 5.63374
1851 1 -3.65676 -2.55797 5.52323
575 1 11.1718 -2.12125 18.9109
1606 1 -1.79851 11.8913 19.7295
1861 1 13.5909 10.6814 18.3737
1121 1 13.3083 -2.03773 5.78373
382 1 12.3624 -2.73144 5.13658
231 1 -1.19956 25.6812 18.9911
1454 1 14.5496 13.3662 18.7725
823 1 1.15692 12.4522 5.51566
1171 1 16.4463 -0.118928 4.60848
828 1 2.0307 12.8995 5.35963
1125 1 3.71802 -0.580315 18.667
807 1 16.743 12.7905 19.6494
749 1 5.6493 -0.779452 4.84663
1321 1 -8.37644 12.3977 5.80906
2048 1 4.58877 12.6222 18.8388
1154 1 5.29067 13.6472 19.129
1030 1 4.5615 13.114 6.03432
802 1 6.75398 26.6877 18.4817
508 1 7.33235 12.7247 19.3228
1206 1 6.28715 12.7632 19.5369
885 1 7.97387 13.2325 5.00107
413 1 22.5605 -0.909264 5.78986
320 1 -3.38087 12.3006 4.77387
363 1 9.29317 -0.74157 4.74039
618 1 10.0561 12.9109 5.58743
1784 1 11.7713 26.3615 4.80935
740 1 -2.62368 12.5654 19.1992
1809 1 10.7712 -13.8901 5.07781
1210 1 13.581 12.5738 5.28262
302 1 -1.04844 -0.658967 5.60629
1623 1 13.3838 -0.084212 19.0927
1356 1 14.0391 -12.316 6.18983
1277 1 14.8192 14.0228 20.0181
106 1 14.8074 0.883297 7.3734
478 1 15.7273 14.8969 7.09474
383 1 15.4651 0.0944647 7.19513
2020 1 2.81909 15.0879 19.9088
1786 1 16.5735 14.1916 20.5422
1993 1 -9.86139 15.0026 6.3898
780 1 5.83142 0.767334 6.29553
1942 1 5.62084 14.3569 7.51467
214 1 18.353 14.3113 -6.50148
1081 1 20.4354 27.3799 -7.30162
2028 1 6.61335 15.1097 6.50918
30 1 7.33759 -13.0023 -20.5744
290 1 6.44819 13.7786 7.42487
1439 1 20.3964 14.7805 21.2787
593 1 9.01995 1.24214 6.60275
1284 1 -5.18417 0.365533 6.52121
1480 1 -5.75365 28.7541 19.768
305 1 8.29891 0.646947 -6.24713
586 1 9.95982 14.6347 -7.58861
123 1 9.45209 0.537835 7.34042
1931 1 -17.1586 13.7457 6.556
341 1 -3.25439 1.20648 -6.20155
1169 1 11.8621 14.6666 6.1501
146 1 11.9025 14.0612 -6.72142
784 1 12.9487 1.19501 -7.47452
301 1 12.4848 14.8389 21.1118
551 1 -0.0892486 1.20597 -6.24234
243 1 -0.0214312 0.37707 -7.18651
1570 1 -0.991314 13.8333 6.34725
79 1 13.2693 0.244453 7.48406
1278 1 1.44388 15.679 7.4503
1011 1 0.351495 15.824 -6.55095
1349 1 -11.6823 2.1466 19.8814
615 1 2.63348 2.95714 6.30739
1818 1 2.63769 2.44955 7.18827
1752 1 17.1302 2.28761 6.10121
1849 1 4.35122 2.39426 7.03438
830 1 5.10509 1.53528 6.72969
564 1 -8.49057 2.97166 6.86618
1489 1 20.8305 2.38304 6.24203
1042 1 7.34749 -11.8385 7.13094
2017 1 -7.42083 15.8646 20.7789
1441 1 -6.6026 -10.8732 -6.5386
612 1 -5.6041 2.56758 6.442
1427 1 -4.57189 2.53949 7.07131
1973 1 8.41196 15.4117 20.9412
921 1 9.77591 1.9153 6.4356
1062 1 10.2122 2.33657 7.35627
1902 1 9.38639 1.63018 7.55729
923 1 10.938 15.4718 20.1719