ITEM: TIMESTEP
150000
ITEM: NUMBER OF ATOMS
2048
ITEM: BOX BOUNDS pp pp pp
0.0000000000000000e+00 1.3679807573413575e+01
0.0000000000000000e+00 1.3679807573413575e+01
0.0000000000000000e+00 1.3679807573413575e+01
ITEM: ATOMS id type xu yu zu
261 1 1.73339 14.9541 0.184363
1643 1 0.327909 -12.1448 2.50451
9 1 15.5714 15.0722 1.34227
4 1 -12.8213 14.2997 -13.6745
773 1 2.27837 1.0064 2.31754
1340 1 1.11299 13.5725 26.0623
239 1 2.86465 13.4254 0.669014
1426 1 18.0162 13.5223 28.2741
1363 1 -9.38196 -12.6802 0.851468
1765 1 3.74624 13.3611 13.5404
225 1 -22.1498 -14.1173 1.84122
283 1 33.2622 14.3393 13.5183
1792 1 6.19977 27.2851 14.413
780 1 5.19634 -1.14763 -0.417829
886 1 7.71438 14.8702 -13.0309
891 1 22.4266 15.1585 13.8882
999 1 -5.11476 14.2336 1.67772
2024 1 -5.5401 0.598026 13.4853
32 1 12.4075 -12.2125 -0.137532
1717 1 7.45858 0.817339 12.8151
412 1 23.8565 1.95091 -12.4383
1357 1 -1.09764 13.6667 1.01222
327 1 -2.62606 1.36522 0.622506
824 1 12.1612 1.05028 -1.10344
69 1 -0.206762 1.93194 -12.5352
853 1 10.9331 0.962701 1.61778
958 1 12.9666 0.893966 2.72699
1922 1 -1.00771 1.54959 15.3792
329 1 1.40728 15.9381 -0.446749
479 1 0.768602 1.66093 0.430559
1720 1 15.4492 16.1067 1.45542
689 1 1.76406 16.4735 0.394227
1066 1 16.6117 -11.1257 1.12077
255 1 18.3761 2.30711 13.9944
1088 1 2.51966 15.6304 0.348186
1889 1 3.59668 15.9373 13.8538
565 1 1.86274 13.9216 -0.0537546
700 1 16.7938 0.510378 1.60933
1364 1 16.6409 0.89013 -13.4765
1211 1 20.1922 2.92795 26.4094
98 1 -7.44876 2.267 0.359764
1441 1 -9.28687 -12.1297 -14.0361
679 1 6.33431 14.6353 0.855728
503 1 -6.64195 16.8353 0.269997
55 1 20.5942 14.7216 -0.04737
1607 1 7.539 3.18978 26.6574
883 1 8.33939 2.53276 13.1751
982 1 8.03216 15.3932 -0.925166
1014 1 10.1482 2.90208 1.87252
1622 1 -3.7353 15.1102 13.9476
1848 1 9.57229 15.5413 2.25803
1839 1 10.0254 -10.4702 14.3615
616 1 13.3408 2.91157 0.987506
2034 1 11.8929 29.5095 0.60795
1410 1 0.638367 2.71492 1.22988
1684 1 0.959565 4.95917 14.4234
1805 1 27.8735 2.99671 -1.07355
1675 1 15.9248 16.6595 13.2163
902 1 -12.5942 3.75178 0.627368
134 1 1.62973 17.9911 -12.3787
1555 1 13.6686 -10.3598 1.81207
1453 1 -12.0395 19.5069 1.52738
1860 1 3.08627 16.818 13.8378
881 1 4.27575 3.58129 2.04428
1477 1 16.8616 17.9966 14.0888
24 1 5.65319 -10.8788 -0.330381
1100 1 6.26433 4.36074 15.1763
926 1 20.4076 17.195 1.30816
443 1 6.1239 17.4345 -14.0909
611 1 -5.606 3.07895 0.504278
39 1 7.88538 4.9526 -0.481091
330 1 22.2317 3.84765 -1.99099
601 1 7.98615 2.57297 1.72013
1157 1 8.68767 4.40576 0.143554
849 1 9.79193 -9.35514 0.701178
1726 1 -3.11362 31.2618 27.496
1185 1 -16.4834 2.69638 1.13511
1341 1 27.588 4.16723 0.0721168
1390 1 26.1567 17.682 13.9767
511 1 10.1005 4.41572 1.77701
350 1 26.9726 -8.12677 0.629083
606 1 25.6987 6.44532 -0.238611
1884 1 13.8479 21.1968 16.917
782 1 -0.0790796 5.05124 27.1145
771 1 15.5877 5.16465 13.3671
648 1 16.1269 -7.2481 3.44126
444 1 -9.63633 -9.84543 -0.234673
1604 1 5.98028 18.989 15.2967
2010 1 20.0048 19.1385 0.494112
651 1 3.86591 19.4066 -13.268
1534 1 -8.26898 17.4055 1.50124
864 1 7.63932 -9.5924 14.0959
1292 1 20.2597 4.49818 27.554
918 1 8.46911 19.5981 -0.67604
1586 1 -6.82543 5.34454 13.245
1924 1 -4.74711 7.15028 13.6758
747 1 -5.29216 4.37247 1.16609
1665 1 11.6331 5.58439 1.09329
1379 1 -4.29192 6.19639 -0.0724307
1279 1 -4.55927 32.2625 15.4018
1401 1 10.4024 -8.24888 15.0102
1351 1 -15.6781 17.9021 14.5851
307 1 -0.940275 3.76362 15.0027
525 1 0.0134955 6.45974 0.230459
837 1 -0.114169 -6.19876 0.212009
1109 1 26.617 -6.24949 1.41886
1393 1 -12.0776 6.89957 14.9649
1400 1 1.66641 6.23373 16.2334
933 1 2.45542 6.28765 -11.8849
1517 1 17.5928 6.11483 15.1705
966 1 2.98308 21.8813 2.30086
1703 1 -10.7635 -8.48746 -0.272929
345 1 17.3435 20.2228 13.4463
1810 1 4.3921 7.46917 15.0193
1904 1 4.42912 20.5116 13.996
230 1 18.7348 7.02989 16.076
1745 1 5.50913 20.7094 13.6395
460 1 6.41493 -6.11641 15.1882
404 1 5.37351 6.1611 14.2725
1288 1 6.38452 7.6527 14.1515
217 1 20.1736 20.7958 -0.753405
1394 1 8.16167 -6.72536 26.5137
1629 1 8.00787 6.53538 13.9736
1226 1 23.2248 6.10282 1.2759
1420 1 24.7805 -19.1739 14.6623
418 1 10.8484 18.481 27.9744
288 1 10.1677 -6.10746 15.5835
654 1 -1.18733 32.2292 -12.2957
813 1 -15.2373 8.78812 14.9579
1460 1 24.7989 6.68896 12.9072
1541 1 -1.75366 7.77811 1.51627
367 1 14.1634 9.2911 0.647625
131 1 0.8722 7.31147 -13.4564
567 1 1.1302 8.06021 15.3563
202 1 1.41737 -4.68629 1.05468
857 1 13.8351 -5.6867 15.9912
809 1 -11.7985 -5.95373 0.794539
1724 1 17.0475 21.1819 15.283
1048 1 2.86009 7.19051 13.5609
832 1 16.24 19.8187 0.0826812
560 1 4.17692 23.0434 14.3027
258 1 5.51768 7.65421 -14.513
604 1 17.1106 8.10683 14.2119
1443 1 6.276 22.4404 15.245
1212 1 4.84618 -4.71294 13.5733
1769 1 7.06889 22.0647 14.6003
1756 1 20.8176 22.0458 -0.26332
2040 1 8.32752 7.49595 14.4319
1055 1 7.36541 -6.18465 -13.411
870 1 -19.3715 -5.61446 12.9934
125 1 -4.41177 7.97199 -13.2928
2027 1 10.3008 -5.59902 -0.484424
956 1 -3.58623 22.1441 0.398152
1719 1 12.5705 7.24362 -13.3006
636 1 -0.659105 10.202 13.6446
454 1 -0.412917 22.3427 0.479308
1997 1 -13.174 10.0679 13.6388
388 1 -0.202684 24.3264 14.5292
1718 1 28.0495 -4.61241 15.7462
930 1 -12.1788 23.4688 15.5179
607 1 30.0068 8.35323 1.25433
1449 1 4.01286 10.2651 -0.182039
1859 1 3.23065 10.2679 15.2344
549 1 -9.60949 -2.66657 -1.17455
335 1 4.80833 -4.64028 1.51632
692 1 3.6585 -2.44382 1.77975
1063 1 5.87746 8.41689 -0.0331817
965 1 -6.18658 9.19515 0.470597
609 1 6.50404 -4.59331 -13.2586
1837 1 -6.14108 -16.6477 27.1887
419 1 9.45085 9.68751 1.50398
715 1 9.36279 8.76319 2.18577
1195 1 9.33873 7.23223 28.6322
716 1 -3.09935 11.0746 12.724
644 1 -17.3693 -2.96086 14.7964
1630 1 24.9126 -4.57922 0.40149
441 1 -2.59023 10.3455 -12.9066
1747 1 12.2194 10.7002 1.94949
787 1 -2.25585 -4.1422 1.51472
1101 1 11.1429 -2.7561 15.5311
1531 1 -1.78815 -2.59153 1.04441
274 1 -1.95471 -2.06731 -13.8544
721 1 13.87 25.1583 13.9822
310 1 0.461209 10.3318 1.71162
1167 1 -13.4106 -2.34843 1.7015
1693 1 29.1212 10.562 14.2427
1872 1 -11.9253 11.5332 1.1353
1360 1 1.02952 -1.61285 0.0856519
1624 1 2.33289 -2.81174 15.5007
92 1 16.1466 13.0783 -12.0407
1546 1 5.79682 -1.60644 15.3875
6 1 5.30601 -2.61297 14.2307
924 1 4.03669 -4.04317 15.246
859 1 18.6146 -2.69857 13.0352
1696 1 22.2705 -2.64887 0.359953
685 1 -6.98244 11.1049 1.46753
192 1 20.0245 10.4426 -13.2565
400 1 -4.24648 11.6792 15.408
87 1 -4.03338 10.6881 16.0325
932 1 -3.57549 11.975 -0.261127
1835 1 -2.81196 -2.30253 0.521876
1428 1 11.2777 12.3552 0.690663
485 1 -2.43662 -1.04206 -0.729434
411 1 14.4201 -2.9055 0.746097
1689 1 28.5869 -2.68892 15.6384
1230 1 -0.557655 11.7364 14.8594
1876 1 12.3889 12.3906 12.8639
245 1 0.0662138 13.9241 -0.537273
1507 1 1.0248 13.2534 13.933
592 1 -13.7341 12.2916 -0.432642
726 1 1.02781 14.6822 1.01017
1116 1 0.792139 12.2504 1.19622
1650 1 1.47641 12.4067 16.8011
284 1 15.6667 -14.6514 14.4225
426 1 1.40994 27.3661 2.40671
1527 1 3.44405 12.6287 1.10799
847 1 -9.78222 -1.90891 14.548
471 1 -9.00275 -2.35663 -12.3647
1843 1 19.0283 0.44988 14.599
1361 1 6.85856 -14.8395 1.75147
1355 1 -5.7825 -1.78839 27.4051
1031 1 -6.69297 -2.22233 -13.3427
1306 1 -5.77884 12.9152 14.5735
114 1 -4.35352 14.2743 -13.101
1376 1 -3.66458 -1.81605 0.830138
784 1 9.02118 -1.66976 -13.21
1565 1 10.1646 0.682811 29.6955
406 1 10.4845 0.0344923 -14.1355
1929 1 -3.11367 14.0734 0.919652
1138 1 -1.7221 0.0309804 -14.3395
1544 1 11.8958 -0.443128 13.9985
1561 1 -0.953936 14.0006 13.7488
1272 1 0.00396851 0.314626 0.602135
234 1 -0.572331 14.8172 0.583532
74 1 -12.9302 14.2506 16.7066
1709 1 16.1682 -0.183245 -11.0681
1065 1 -11.1487 1.65548 3.35166
1451 1 4.45806 1.47299 2.63113
162 1 4.64695 14.1451 -11.9313
1198 1 2.47398 26.7444 3.62751
1621 1 -10.2443 -11.992 16.2276
532 1 19.0747 0.494076 2.4713
1438 1 20.9403 26.7935 2.9235
2033 1 6.0504 13.9214 1.7665
160 1 7.028 1.43918 1.59714
584 1 9.4894 13.511 -10.8149
1901 1 7.75274 13.9369 29.7219
579 1 22.0565 0.271295 0.704851
983 1 22.28 13.396 15.8218
718 1 -3.31606 15.3381 16.8075
1682 1 24.8305 14.3257 30.157
875 1 10.7049 1.75943 17.8984
706 1 10.8435 15.7658 -11.5957
1352 1 -12.8761 16.1602 2.37083
1585 1 12.6673 14.8661 17.2859
1515 1 0.813572 15.4356 1.63035
522 1 -1.10747 16.1729 15.5608
694 1 0.719162 16.0335 3.35755
791 1 2.67644 15.7633 29.3617
278 1 3.51704 -12.3297 3.64724
566 1 16.0612 -10.031 -13.0159
1822 1 3.00856 1.52942 14.8271
913 1 17.5809 1.75154 15.2742
687 1 16.9008 3.55264 15.3191
1457 1 6.25516 29.2655 14.9818
520 1 -7.98447 -13.033 3.63652
1492 1 32.481 -26.0146 15.0765
1631 1 21.0698 2.16784 -12.843
698 1 48.3679 29.0251 2.9834
1685 1 6.99675 15.924 2.19733
1262 1 -4.90002 1.2828 17.2095
575 1 8.9637 1.34073 14.9548
267 1 -4.58987 0.852973 2.46598
129 1 22.2758 2.13595 2.47354
508 1 9.68738 15.279 17.8902
1858 1 10.8045 3.08938 2.79739
1714 1 25.3526 2.012 15.2467
1209 1 -1.85731 2.76366 2.53048
666 1 -2.21066 15.3161 2.96343
1763 1 -13.9483 2.43691 16.1264
1057 1 0.495739 -8.59486 15.2866
1199 1 13.2524 4.22901 3.32559
1261 1 1.17415 17.0708 2.18798
249 1 2.26029 19.1049 2.61701
580 1 3.57297 16.4286 2.2113
704 1 18.9881 3.20248 2.56225
1618 1 3.70126 4.62327 29.5056
1781 1 4.71392 16.0852 1.8607
1169 1 19.644 17.1545 0.567626
1349 1 -6.73413 4.50898 17.0194
676 1 5.64998 17.9238 2.57805
701 1 21.7142 3.64114 15.4934
990 1 22.2114 2.24509 -12.8259
912 1 7.08897 18.7222 -12.674
1032 1 -7.36199 2.56995 2.96116
795 1 8.01113 -12.1776 1.82356
1221 1 7.30709 18.0902 1.75542
294 1 -6.15799 17.0512 16.5159
991 1 21.654 15.807 -9.5762
1648 1 9.0663 3.39524 13.9951
2048 1 9.14923 17.4012 15.1294
1077 1 8.57104 -10.3233 3.35356
1974 1 22.7636 4.03883 16.1895
1098 1 11.2399 3.57898 2.08243
1830 1 11.1108 -9.06646 15.3601
844 1 11.5192 -9.51345 4.73937
237 1 -1.37283 2.15681 -10.404
478 1 13.5412 18.1811 1.03229
139 1 13.5657 18.1932 -11.3719
1574 1 -0.853324 3.5145 29.7038
1969 1 14.0023 19.8097 14.9758
1051 1 28.1647 6.63098 3.15087
489 1 -12.9134 4.61763 3.66517
1255 1 -13.2651 5.86667 16.0989
1386 1 2.4447 -9.2355 15.5192
376 1 16.9197 6.0521 16.3599
459 1 17.5949 5.02652 14.9404
1736 1 3.55425 20.7946 14.3879
2041 1 19.2665 7.08697 14.7366
655 1 4.96937 19.6894 -12.0451
1106 1 -7.13642 4.92982 2.36107
1818 1 6.75635 3.82251 2.35903
1537 1 20.7389 -7.77426 15.6099
1738 1 6.02835 5.98645 13.2343
1646 1 7.89867 -9.32095 -10.9452
2030 1 7.98525 -8.3625 15.6461
373 1 8.76973 5.13764 16.5486
1281 1 -3.90675 -9.04349 3.13959
614 1 7.72577 6.46666 16.1376
906 1 -2.77471 18.3044 2.86349
477 1 35.8816 19.7551 15.0331
971 1 -2.35092 -8.68074 4.06645
122 1 11.4622 17.575 -10.4812
1596 1 11.1435 5.73957 2.10402
1105 1 -0.96994 -7.21532 -12.5095
1001 1 -0.481796 5.37092 2.06803
1669 1 -14.9951 5.5675 3.36204
979 1 14.0141 21.0293 14.9171
1173 1 1.16102 7.44689 2.46694
1124 1 2.17182 7.39888 29.2961
1653 1 2.93345 -6.1522 17.1115
159 1 2.90778 19.2552 17.3978
75 1 -9.72364 6.89398 2.79733
1940 1 16.6674 7.02881 2.53575
1437 1 19.6241 -7.09427 2.06596
253 1 -9.37809 7.77204 2.36195
501 1 -7.09436 20.2825 -12.6605
476 1 -7.77854 7.70974 2.67241
52 1 7.4473 6.05643 14.69
683 1 7.96409 6.73122 3.41391
684 1 8.24648 18.9994 0.559135
1881 1 8.92436 20.4405 15.9466
998 1 -3.73303 20.1941 2.3015
1251 1 -3.07724 6.50343 15.2452
860 1 10.7736 6.86778 2.85474
826 1 11.3659 -5.88039 2.77341
1587 1 13.7521 -6.77814 15.8339
2042 1 12.3153 21.4013 17.1055
1871 1 -0.147904 -8.46994 16.9242
1385 1 -0.121773 9.77416 -11.2856
527 1 15.0186 -6.15684 3.73168
1462 1 2.08272 7.85625 -10.7581
1127 1 -10.0663 9.03826 2.45798
1369 1 1.98114 8.50978 2.13857
1512 1 5.3741 -5.13114 16.0275
513 1 20.8924 -20.7966 -0.361368
1232 1 5.74063 23.262 15.6484
627 1 3.95592 8.47349 1.63199
1838 1 5.40189 8.42518 -10.075
152 1 7.31152 9.13832 1.76623
1946 1 33.9567 9.3239 2.52225
108 1 7.41225 7.04043 15.171
1772 1 -4.80735 -3.88348 2.56913
1907 1 21.5292 21.7893 1.42017
1408 1 8.46638 8.45628 18.5408
1003 1 8.8811 21.526 15.7044
1778 1 10.5261 22.5458 2.4525
539 1 10.1198 7.78881 -10.7213
248 1 21.6171 21.2168 2.3985
1990 1 11.2912 9.62111 2.61391
84 1 11.4039 -5.05401 2.09211
138 1 12.7998 7.84748 -11.2879
1487 1 -0.451542 9.62548 14.5119
1543 1 -13.0887 -4.22377 3.28136
1129 1 14.2068 -2.92141 -11.0328
814 1 -0.824383 -4.30656 -24.3261
661 1 0.779077 25.2306 3.22539
993 1 0.878423 8.20904 -10.5544
1877 1 1.75115 23.918 16.5037
1112 1 -12.0592 -4.76293 3.15982
428 1 3.58782 24.0633 2.45657
748 1 -10.8999 9.24726 1.87562
1533 1 19.0221 23.146 17.0065
1064 1 5.03171 10.2802 1.38743
1056 1 4.81585 -3.9034 16.2304
724 1 3.80676 9.62006 16.9894
1300 1 7.57638 -4.09488 16.4185
976 1 -7.88307 9.76652 -12.7994
104 1 8.05678 -3.7018 15.3542
451 1 -6.41659 -3.61283 0.92912
434 1 10.1282 9.65395 16.6742
43 1 10.2097 -3.98499 14.2869
1350 1 -16.8471 9.68972 15.5712
1383 1 -3.44237 8.73067 28.7834
1698 1 -1.45452 9.53257 15.8775
760 1 10.6551 9.85537 17.5275
1570 1 -3.09296 12.1768 1.56619
384 1 -1.12552 12.3418 2.82651
1740 1 -0.555183 8.7918 15.3271
1945 1 13.1407 -2.92306 2.4593
333 1 27.9028 -1.58267 2.29271
1652 1 -11.8308 -1.9687 2.41159
1036 1 0.0115969 12.5165 3.2128
1626 1 18.1549 -16.3907 16.0506
1074 1 3.69908 12.2688 -11.5814
222 1 4.11036 10.4865 0.863087
546 1 -7.77346 -3.09869 15.4627
1431 1 6.46335 11.4688 16.3131
50 1 7.23939 -2.99393 2.32351
1532 1 21.6177 -2.64675 17.3721
1549 1 8.84208 -16.5035 28.7374
1891 1 -4.01498 -0.889896 2.01974
696 1 8.28344 -3.02538 2.77578
686 1 -2.95325 13.2578 15.3481
338 1 11.2773 10.1487 13.3735
397 1 10.3799 11.4997 16.1254
1514 1 10.632 -0.836422 13.7553
544 1 25.1754 -13.6633 1.25768
1886 1 11.5525 25.6995 15.6026
822 1 -16.4574 12.4311 2.59758
1403 1 -1.28941 12.3029 0.437331
1417 1 14.0083 -14.1795 16.1446
557 1 13.6114 0.970704 -12.1052
346 1 0.930199 -12.9333 -9.4576
1770 1 13.1565 0.0363151 15.5355
1058 1 0.667799 13.3148 15.1267
515 1 1.99486 0.530899 17.2105
1366 1 14.5834 14.4412 2.05803
1723 1 2.69539 12.0186 15.1869
349 1 16.6888 0.808413 16.7156
699 1 3.81882 -0.21495 1.85929
1633 1 4.63434 -15.001 15.3461
280 1 4.41689 13.2528 2.69054
766 1 5.36446 11.4514 2.52801
954 1 3.60132 11.8063 -10.4907
1645 1 -5.91101 -2.74684 -12.4859
1987 1 -6.04377 11.9264 14.9943
150 1 7.49385 14.0786 -12.2948
1194 1 8.63082 26.7349 13.6263
1480 1 -4.80828 26.2383 15.1046
880 1 7.23823 13.7388 -13.3572
929 1 -4.12939 0.35812 1.53153
1163 1 -2.97944 13.4124 -10.9791
637 1 -2.93753 -1.77769 3.47876
695 1 23.0281 13.0517 0.711262
1732 1 -1.67401 28.4173 0.91256
1730 1 -2.52717 0.921613 17.5994
1332 1 13.3041 -0.93689 14.7077
1789 1 0.0295403 13.4993 17.6164
2013 1 11.9426 14.7312 -11.6239
112 1 0.467919 15.3646 4.20469
693 1 1.58875 -11.9724 -9.58725
423 1 14.7331 13.3419 5.96829
1115 1 1.47681 -14.4603 18.7635
1970 1 -25.4125 0.743881 31.8911
448 1 14.9496 1.63375 -10.735
550 1 4.71458 -12.4713 18.3824
1080 1 2.96 0.171169 17.8091
1176 1 17.8045 -13.1438 16.3634
987 1 6.54892 14.2055 -10.8617
371 1 -10.2727 12.9113 3.02793
1327 1 -5.92427 1.13868 3.72502
1550 1 21.6723 -0.954832 3.90658
1540 1 -6.5295 -0.00187658 19.0289
1316 1 -5.27222 0.0432743 3.32951
1083 1 22.8954 0.445575 4.03358
1210 1 22.8326 14.1881 5.29538
1890 1 10.3154 -13.1898 3.35799
1708 1 -4.49313 15.068 5.79486
260 1 -2.28724 -0.015665 5.15294
1481 1 -2.22097 16.1195 3.79089
396 1 11.5674 14.7058 -8.66385
1229 1 12.2764 0.658682 4.35837
974 1 -0.348945 15.5943 3.25418
115 1 13.5967 14.0358 18.4886
1609 1 1.18893 2.80495 18.0166
130 1 1.08817 1.82244 -8.72672
602 1 1.77828 2.3958 2.58094
573 1 29.5807 -10.1544 2.96419
493 1 15.6255 16.4011 3.69176
1885 1 3.91949 0.64878 4.41671
804 1 4.89546 2.21829 18.02
1658 1 4.19781 -0.0104635 17.384
2038 1 3.85716 15.6218 31.8456
1977 1 4.71656 14.8729 30.9978
142 1 6.06172 2.9326 15.4114
324 1 -8.11523 1.51776 -8.26572
363 1 5.73729 2.11746 2.23902
1125 1 4.91064 4.30501 19.2764
578 1 5.90647 15.361 4.09072
615 1 6.94484 1.9896 3.92568
714 1 -5.93119 15.7275 18.8085
2018 1 6.61975 15.3614 18.72
440 1 21.0285 0.965767 4.68329
1478 1 6.51461 14.1731 31.6841
617 1 8.77077 1.36379 -8.89731
118 1 21.9761 0.677254 5.80966
1473 1 23.7275 28.5235 5.06802
413 1 23.6047 2.59351 3.11776
969 1 -3.84425 16.7808 4.17243
436 1 -16.3968 16.9469 3.81468
313 1 25.4213 16.911 5.53351
1432 1 13.7889 16.97 -10.8088
1320 1 -0.116346 3.39351 3.91788
1608 1 -11.9057 -8.95662 18.7004
383 1 14.8326 3.47169 3.19394
170 1 16.0052 3.10399 -11.6593
815 1 1.94253 3.42576 4.69696
1004 1 2.93243 18.1112 16.7209
116 1 16.4559 29.9411 2.86404
1790 1 4.65653 3.2008 4.16259
381 1 4.47347 4.38572 -10.9136
512 1 16.4947 17.0324 3.68201
1450 1 4.48402 2.82717 2.99519
111 1 6.24435 15.2419 -10.5529
1503 1 33.6948 17.3647 16.9149
1407 1 5.25976 2.2236 30.6822
174 1 8.6645 15.9284 19.2573
1412 1 7.99914 16.2094 16.8515
155 1 22.9665 3.05292 -11.2987
623 1 24.1696 -9.29381 3.95973
744 1 9.07338 2.28519 17.3112
18 1 -3.58961 17.4785 -11.0452
336 1 12.9807 16.3026 18.0723
417 1 -1.30507 17.0127 3.51325
896 1 14.4656 4.93445 18.4312
405 1 -1.42606 18.2245 -11.2734
1162 1 14.5851 3.90752 18.0856
1589 1 1.41132 4.70947 2.47232
270 1 15.3636 -9.60416 -9.91432
950 1 1.05378 19.228 -10.4886
2028 1 3.7616 18.7386 3.29502
100 1 3.46033 4.27265 -9.68575
540 1 2.96524 5.36036 1.78211
1297 1 4.31606 5.43336 2.41132
1475 1 -8.78554 4.88594 15.5072
722 1 19.4467 18.571 17.0771
427 1 -9.30493 -8.1528 4.56598
754 1 19.0904 19.4321 -11.2034
195 1 -6.74124 6.2444 16.7328
1576 1 -5.9632 5.40002 2.98871
298 1 8.07645 4.40642 -8.96495
235 1 -5.06965 18.201 -10.0338
1697 1 -4.07228 6.06888 4.74984
1086 1 9.76037 5.49099 2.29915
226 1 -18.5321 17.5203 4.42489
1164 1 9.31497 5.53849 3.76317
1208 1 22.4221 6.11869 16.7739
1676 1 -3.25654 5.45221 18.0516
703 1 10.324 -6.6429 4.93037
1497 1 13.6231 3.84443 4.80095
1429 1 13.0928 5.34461 4.30642
939 1 -1.42979 4.40116 -10.0069
1919 1 12.8334 -6.82442 2.78088
1701 1 -0.402782 19.9205 3.49206
1214 1 28.5769 35.9706 4.10061
1318 1 4.03429 -21.1168 -10.0205
196 1 -9.61936 7.54661 -8.42709
94 1 19.6066 19.6129 3.36298
1938 1 3.8935 7.25535 17.4503
1982 1 19.5989 6.95821 17.1605
297 1 6.76066 -6.50763 2.34932
1814 1 4.72088 18.9553 17.2344
2021 1 -18.9329 7.53988 17.9421
1826 1 6.80951 22.2824 17.203
366 1 -7.58989 7.82703 4.28623
1773 1 8.61471 -7.36965 4.17608
577 1 7.02313 19.3877 3.99095
1581 1 9.08351 9.08951 6.24961
49 1 -3.30399 5.62345 16.7872
1853 1 9.94461 6.64423 31.2343
803 1 9.57282 -6.03415 17.8246
101 1 10.5472 5.78519 -7.11587
597 1 12.285 6.02082 2.27654
368 1 11.8354 6.98842 2.32136
1807 1 -1.0788 -6.96643 17.8958
854 1 -0.791948 -5.98447 4.30425
811 1 13.8004 -20.4936 4.1188
1436 1 27.0425 8.44477 30.508
1677 1 -12.0954 21.6188 4.82004
521 1 13.7189 7.624 6.19062
846 1 17.2812 -5.54939 3.13386
1828 1 0.283042 21.9111 4.05122
1145 1 16.5668 8.65172 4.80083
1588 1 -11.4444 -19.0972 -9.76744
3 1 4.47089 -5.07621 3.18624
1228 1 2.8651 8.93503 3.41326
742 1 4.90027 7.56531 -10.4943
1459 1 5.26364 -4.87066 32.2801
839 1 4.56452 7.99966 17.8068
26 1 20.0808 -5.1523 -8.44525
1027 1 7.58763 9.25128 4.39253
438 1 21.6693 9.96627 3.6788
135 1 -20.4436 21.8547 29.7757
1578 1 20.8238 -5.69771 4.3825
1402 1 21.8688 -4.86118 17.2764
102 1 8.5533 21.8522 -10.7208
1857 1 8.99145 -6.38969 16.8895
1392 1 10.3896 8.06977 18.284
920 1 12.0374 6.50999 3.3701
1866 1 10.6937 -18.2682 18.4841
1186 1 -2.82609 7.5231 3.78923
1690 1 -1.87535 7.40618 4.21314
658 1 -1.74673 8.61228 -10.6402
973 1 2.42294 -4.28839 18.0388
774 1 12.5267 -2.05915 15.8259
177 1 0.953366 -3.82555 4.36553
1353 1 -23.7397 -19.0306 4.08019
1062 1 2.70605 -3.27343 4.35422
483 1 3.55635 9.31005 4.29731
126 1 17.405 -3.31826 4.72208
250 1 16.3039 10.1018 -10.4681
1743 1 4.00189 22.2079 5.12181
1203 1 5.95053 9.06767 4.20999
1023 1 18.2917 22.7344 -9.54041
1712 1 -7.27564 9.53954 5.43338
1430 1 20.4902 9.64492 -10.0227
488 1 -7.61474 10.3095 2.77996
1704 1 7.50292 -2.77012 18.5596
1691 1 -4.21376 10.5858 5.17355
591 1 9.06449 -3.08269 3.44496
1744 1 -4.44034 9.61814 17.275
524 1 -6.98384 -3.63968 1.77854
1548 1 -4.85613 -17.9371 4.72157
1972 1 24.6787 -4.84046 17.0338
945 1 23.5473 10.6977 -9.53945
1365 1 11.5135 10.6866 3.93288
167 1 -3.61182 8.67243 3.81713
1566 1 11.5725 -4.04037 30.9282
772 1 -0.997009 8.7574 18.777
1305 1 -15.1035 -3.4274 3.02657
1634 1 0.347707 9.6093 19.2354
1455 1 -0.400162 12.5921 2.08243
740 1 -0.270713 12.5225 18.1945
893 1 2.16044 -2.2803 4.79512
240 1 15.5684 11.3762 17.4561
1293 1 14.7644 27.089 3.41243
221 1 16.5021 11.0682 2.88554
1302 1 15.6953 12.4714 4.29881
828 1 3.95607 10.6078 3.60814
863 1 5.17832 11.8556 4.02133
357 1 20.6004 12.1661 3.3303
48 1 5.91284 11.3152 3.54153
618 1 4.98767 10.7225 3.37188
1801 1 -7.10925 11.0614 4.33665
1707 1 7.85223 12.5267 5.0488
78 1 8.26994 -2.27901 -11.6156
1816 1 19.6852 10.2977 3.88002
1271 1 9.1167 11.5416 17.599
402 1 23.5606 11.3228 17.0114
1152 1 10.6851 10.5785 16.5711
713 1 11.6312 24.8751 2.80227
77 1 11.5334 -0.871076 3.37263
1312 1 13.3598 10.2831 17.0204
994 1 -1.38146 -1.00649 1.51471
224 1 14.4548 10.5051 3.62161
468 1 -0.698566 13.2714 -10.6028
1547 1 14.4552 -13.7326 18.5624
833 1 2.01798 0.471502 -8.02986
1594 1 15.3734 -0.22327 4.24151
1796 1 -13.5967 11.3547 4.11344
855 1 2.59916 -1.47655 16.6332
585 1 3.11932 12.5055 31.5624
300 1 -8.76545 13.5301 -8.27586
1307 1 6.05828 12.8246 2.38484
943 1 -8.80082 -1.40781 -10.6088
1806 1 7.39933 -13.5607 3.83743
341 1 -5.5014 -1.17694 -11.3937
1225 1 9.09329 11.7661 2.69028
291 1 -5.59582 11.9268 3.17933
675 1 7.38049 25.5336 -24.8726
1174 1 8.81233 -0.925432 16.8885
1343 1 8.23681 13.9891 4.41726
641 1 9.718 -0.509529 3.9207
1948 1 24.059 14.035 31.6985
1854 1 38.9753 -27.3793 -9.658
1702 1 -15.723 -1.02956 18.1087
41 1 -1.94518 -14.1463 2.28716
1197 1 12.1284 27.6314 3.16318
1242 1 11.7146 -1.91079 17.4714
751 1 11.6306 12.5979 5.70486
1751 1 13.0611 25.6711 3.75756
514 1 -1.06661 -0.707273 -9.77941
767 1 1.00354 14.5009 5.65044
1868 1 1.15253 1.75029 -7.48646
1662 1 0.343276 12.5422 6.24195
1193 1 16.35 15.118 18.0839
569 1 16.7317 -0.30922 6.48028
1215 1 15.6529 15.203 -8.11258
985 1 17.5089 0.482099 5.82132
168 1 5.39093 -0.496339 3.13718
1809 1 5.46337 -13.4695 4.61323
659 1 -8.12869 26.5871 4.08346
1573 1 5.12039 0.620978 -7.62072
1638 1 6.40344 13.3406 17.2783
1752 1 20.8891 0.942968 5.96873
1082 1 6.37564 -12.9616 5.35905
352 1 21.0348 1.96325 -7.51431
1813 1 -5.48426 -0.187968 5.28175
1869 1 9.17186 29.6448 20.2111
227 1 -4.7312 14.2999 20.29
1825 1 -17.8316 -0.571515 4.97582
574 1 9.96708 0.846214 6.1328
895 1 25.5701 0.0757735 -6.36149
657 1 -3.64817 13.82 6.97684
680 1 -2.77289 2.53709 5.40858
1378 1 10.8163 1.38386 19.5465
736 1 -1.10335 14.6573 -8.3309
1463 1 13.5576 15.056 5.46939
1466 1 13.0747 1.56694 18.2665
1753 1 0.211577 15.7751 6.20139
691 1 2.08974 2.35104 4.81005
1334 1 16.6438 1.92406 19.0356
317 1 2.96219 -11.1411 4.44905
305 1 15.7106 2.57458 -7.62757
453 1 -9.95034 16.9013 4.76677
1153 1 17.624 -11.2713 5.58822
2017 1 -10.3548 16.4761 20.0169
141 1 5.81904 16.1573 4.99733
461 1 -9.12602 15.1206 5.81144
1678 1 -7.92188 3.29288 5.84504
977 1 19.8965 15.8311 5.96268
1398 1 7.80693 3.86912 17.4866
1774 1 8.65319 30.6497 19.0658
921 1 9.54166 5.23196 6.06917
664 1 10.093 29.4328 -7.54342
1960 1 -4.7688 16.404 4.53155
466 1 10.8595 3.01546 6.61102
1861 1 11.6817 16.02 19.8439
1597 1 11.9946 3.31008 6.50889
325 1 10.675 -10.1614 4.81015
823 1 -1.03318 16.3826 5.67981
1640 1 25.6938 2.00865 4.96946
630 1 14.0239 -11.1168 18.4439
107 1 14.8581 2.89514 5.4034
1625 1 -0.712506 4.41075 6.74652
456 1 2.34464 4.80612 4.09139
1113 1 0.600016 31.287 19.338
1046 1 1.89454 3.57174 5.75418
180 1 2.73749 -10.5386 -8.32724
446 1 17.3951 3.76815 -10.5544
888 1 30.5319 -9.77609 5.8673
1267 1 3.67361 16.3447 -10.0518
1888 1 5.62097 5.32179 5.68433
1496 1 18.8625 3.76012 17.2396
312 1 5.85941 2.88315 17.7415
668 1 6.10331 18.0288 5.6378
364 1 20.5797 2.63842 4.77518
90 1 5.89029 -10.1214 -8.81165
433 1 -5.87128 17.757 6.06714
1093 1 6.98456 -9.87564 18.9144
1847 1 9.58336 2.0861 18.8906
1567 1 37.2797 3.13781 -8.07618
1286 1 8.76999 -7.74973 20.1882
16 1 10.861 3.68379 19.5305
961 1 -1.25076 30.8637 4.56472
1276 1 -1.07934 -9.77231 -8.07081
1416 1 13.6556 2.98067 5.54448
1994 1 1.71354 5.63562 4.09955
1054 1 14.007 -8.04945 4.08395
741 1 13.4015 19.4122 18.839
1237 1 14.8962 33.1618 6.02802
1245 1 15.7547 4.50306 19.7124
1964 1 1.11517 6.53604 18.0477
1140 1 2.67851 4.1756 4.93305
1993 1 -10.3897 18.601 5.78438
158 1 4.4573 -9.42345 4.3313
128 1 20.3317 4.23555 4.36089
1529 1 5.55164 4.65822 4.74651
612 1 -6.71548 3.11273 3.80139
1908 1 20.6567 -8.80306 5.06711
1879 1 20.2775 5.96044 18.6957
1233 1 22.2495 -8.40578 -9.16421
682 1 -4.91038 4.72748 5.36512
949 1 -6.07344 5.86511 4.82181
1636 1 -5.82608 3.15492 4.48615
1075 1 9.66113 17.7819 5.29572
570 1 23.1175 4.81453 4.56202
763 1 22.3467 -7.8924 -8.1776
1331 1 -3.34338 -8.73343 5.44763
1844 1 10.5284 -7.77807 5.57082
487 1 -1.33096 6.0863 -7.06507
1522 1 11.5771 31.7082 5.79074
1554 1 26.2669 -8.31824 19.6072
1963 1 12.5687 18.2876 32.1376
563 1 -0.253556 5.88345 6.32548
1135 1 -2.77014 -9.24098 6.79005
729 1 15.8918 7.32534 17.8643
2005 1 11.2423 5.20659 5.21274
946 1 -0.28166 6.90485 5.01111
1452 1 14.3594 7.36195 5.09548
1141 1 16.8825 19.5987 6.12438
1000 1 0.343468 20.4089 20.0981
1104 1 15.1156 6.9874 -7.41463
884 1 15.3296 -7.79925 5.126
1623 1 17.2205 6.46766 18.2748
1039 1 3.25913 5.16139 18.3026
1374 1 -10.6279 -6.96675 7.71405
265 1 -8.43082 5.9267 4.19328
1177 1 17.6778 5.38012 20.2655
1356 1 19.8127 -6.95806 4.56062
1344 1 21.4672 -6.08619 5.15689
473 1 6.67874 -6.29819 -22.1426
879 1 7.45688 6.97604 4.50018
1078 1 19.8501 19.0707 4.40794
198 1 -5.22847 20.4871 5.16157
1593 1 9.63885 6.26614 33.2765
1686 1 20.6751 7.43848 3.41976
490 1 -5.82213 20.9979 -21.1725
1007 1 -2.24861 5.50401 -7.55123
1959 1 -3.03486 20.6321 5.93078
60 1 10.9996 6.32756 3.90578
1996 1 -2.19335 20.2334 18.6838
997 1 -1.3262 33.1401 4.81409
1893 1 -0.665369 8.21558 20.4766
1278 1 1.78238 21.1121 7.13915
1616 1 2.37669 6.24707 4.59972
610 1 3.18201 -6.23095 4.56741
1935 1 17.1374 9.494 18.9652
223 1 2.44041 21.4823 -8.34876
1542 1 2.96967 6.86693 5.46159
377 1 32.1822 6.37401 3.1759
259 1 -10.4207 38.9537 -8.46788
1205 1 5.0053 20.5615 17.8021
491 1 -9.0189 20.8653 -7.52139
1914 1 18.7868 8.29363 5.73433
1282 1 5.08457 -19.8524 -8.66693
254 1 20.3772 7.58981 -6.04431
241 1 -6.80147 7.73256 6.30962
838 1 -4.30288 -6.501 -8.39819
843 1 35.9522 8.07157 19.4607
1257 1 22.7832 22.2144 17.7779
944 1 9.60224 8.51994 5.34787
320 1 -4.1208 9.5637 5.49909
1158 1 25.3054 8.51882 4.19444
1926 1 -15.7391 8.57167 19.0529
1639 1 26.4295 8.76512 17.7273
243 1 0.0140633 -4.48469 -9.22532
144 1 -14.4858 9.16179 6.01626
164 1 -1.35374 -6.11483 5.33157
1784 1 14.5048 24.145 5.63673
1216 1 1.15596 -2.71692 4.54688
1010 1 -12.7829 -4.90854 5.08936
1253 1 15.6727 11.432 5.92083
1445 1 1.845 10.2265 17.5689
1863 1 17.9266 9.08389 33.3325
1673 1 3.69892 -3.47647 6.12988
1375 1 18.5772 -17.3041 -9.50826
1290 1 -7.75877 -3.4431 6.63199
1405 1 18.1896 23.3823 -8.46689
470 1 7.18792 -3.58519 -7.89941
1728 1 8.384 10.3709 18.2666
1713 1 21.8965 -2.93942 -21.7863
669 1 -4.99038 -15.9166 18.4848
2031 1 9.4106 12.099 -8.48031
536 1 10.3955 23.8563 19.238
370 1 9.8514 23.394 4.50554
582 1 -15.5117 9.4552 -8.91382
1411 1 -3.7523 -4.0532 6.78555
1787 1 12.9627 9.73316 5.0835
1727 1 12.5892 -2.59583 3.63118
1415 1 -0.0580411 8.13191 5.09134
1584 1 13.7522 10.9827 6.9524
231 1 -0.197806 25.299 16.5659
643 1 -12.3151 -1.42268 5.98591
1447 1 13.7283 10.4734 18.5298
1486 1 16.7324 10.1977 20.8212
1359 1 -12.4343 11.9261 18.4931
1892 1 1.84564 -2.08143 20.7325
257 1 3.79754 12.3695 -8.69427
1680 1 -9.93018 11.4965 18.015
1243 1 3.86912 13.4823 5.01586
947 1 16.1436 12.2853 5.2319
1539 1 5.03701 -1.32871 5.16725
213 1 5.57155 10.9332 -9.17618
2007 1 -8.58601 11.4026 20.1463
1656 1 5.68744 -2.15952 5.53648
1435 1 -7.3802 10.6878 5.66897
318 1 20.3537 -1.93104 -8.52512
1339 1 20.9627 -17.0284 6.74183
1601 1 -6.34277 -2.36552 5.94727
264 1 10.0023 12.1318 4.17406
2047 1 10.0113 26.2119 16.6896
301 1 10.4782 11.1936 18.5603
789 1 11.0859 -17.2092 4.76562
37 1 -1.26881 10.1578 -7.50532
1202 1 25.6888 10.3989 18.9527
1043 1 -0.936616 -3.64869 4.07221
216 1 12.7169 10.8937 4.65642
1771 1 14.1986 12.3888 -8.42712
1461 1 0.694978 -1.02545 17.9127
45 1 15.5569 14.9746 -6.76576
1061 1 3.47398 -1.14839 5.89265
1559 1 2.80224 -0.26537 18.9101
1348 1 2.15458 -0.459351 6.05994
1798 1 4.40028 -14.722 17.6706
590 1 5.44763 13.3874 -6.78242
183 1 3.87196 0.670015 7.12666
2045 1 19.9729 12.0658 4.14005
1467 1 21.0663 -1.77671 17.9182
1664 1 19.6809 26.9787 -8.41239
739 1 9.38036 27.1546 6.22775
1663 1 22.6286 -1.15034 -9.40291
586 1 11.7813 14.1996 -7.72036
1192 1 24.4717 13.1422 17.4871
1206 1 8.85239 11.465 19.5515
1122 1 12.5585 -0.0851994 18.7775
1557 1 -1.25849 -15.3303 5.18163
1370 1 -1.29228 -0.316358 6.36038
121 1 11.6483 11.3621 4.74625
1553 1 0.113868 0.0244276 6.00178
1099 1 13.065 -14.4302 5.85687
62 1 13.4106 -2.13522 -8.64377
968 1 1.26233 14.0022 -7.04825
430 1 0.272772 27.4331 20.8618
1131 1 -0.530193 -0.568823 -6.7078
852 1 -24.2524 0.866854 5.22258
2001 1 1.44634 -13.0603 7.54037
58 1 16.5977 0.915497 -6.37067
166 1 -9.98904 1.57831 19.933
277 1 4.94848 14.2042 7.80919
1560 1 -6.7929 -0.944964 4.82276
1489 1 19.3326 0.70039 7.18539
810 1 -7.49877 1.17351 6.40459
1234 1 -5.5452 13.43 6.31332
730 1 21.5873 28.0727 -6.93343
1954 1 21.9953 1.65864 6.34988
236 1 9.68696 1.49494 6.94524
1711 1 20.8125 15.331 8.34281
593 1 7.84285 1.02304 7.96781
907 1 10.7062 1.93743 6.95654
1090 1 -3.03144 -0.703906 21.0084
868 1 -2.7431 0.868992 20.4993
211 1 -2.02795 12.9078 -6.86823
59 1 -0.785296 15.3785 -7.24455
1883 1 12.8194 14.2872 20.2392
184 1 -1.8218 14.8756 7.59048
1502 1 13.7569 28.4071 20.3336
64 1 26.6562 14.412 -6.09178
51 1 -14.318 16.9125 -6.44823
1096 1 14.7511 3.00237 -7.15906
964 1 2.81838 15.335 8.20399
1862 1 14.8005 29.4393 20.8527
1132 1 3.49491 17.7112 -6.02179
1220 1 16.8558 29.3682 20.7378