ITEM: TIMESTEP
195000
ITEM: NUMBER OF ATOMS
2048
ITEM: BOX BOUNDS pp pp pp
0.0000000000000000e+00 1.3679807573413575e+01
0.0000000000000000e+00 1.3679807573413575e+01
0.0000000000000000e+00 1.3679807573413575e+01
ITEM: ATOMS id type xu yu zu
498 1 -0.110413 14.7479 -12.4633
1419 1 13.8357 13.9146 12.4151
386 1 -11.8624 -11.9125 17.06
1263 1 2.9452 15.1649 15.2264
833 1 2.24032 -13.5791 -12.2723
306 1 2.3018 -13.1217 14.2242
1394 1 3.94273 -14.396 28.5148
1006 1 -24.4008 29.8962 27.6115
1392 1 17.6863 15.9812 14.8388
235 1 -6.90492 15.4786 -13.7196
1470 1 4.87076 -13.5553 16.3554
1520 1 -5.48553 -0.767834 28.4243
1701 1 5.69013 15.0236 1.65855
1758 1 6.09164 27.5791 1.03167
1770 1 8.61328 2.42488 -0.28584
1811 1 22.4927 -0.821141 13.4749
1019 1 9.21425 1.7639 14.698
1716 1 22.6511 -13.38 -0.436368
2048 1 10.1745 15.6477 14.8139
1706 1 -15.9316 14.4535 14.5229
259 1 -3.66121 42.0362 -14.6762
1028 1 -2.37547 -11.6008 -1.67461
769 1 -1.46822 -13.5504 1.38287
843 1 52.9451 1.40277 13.7419
367 1 15.8033 14.7322 2.23231
1151 1 26.9386 2.25154 -0.278675
1156 1 -11.894 29.882 -13.5664
956 1 1.80367 17.0857 -0.46023
742 1 1.46422 15.471 -12.6455
1209 1 1.48959 4.14475 0.978159
1785 1 4.84318 16.1121 15.4835
1733 1 2.98177 29.8783 1.38326
1409 1 -10.1211 3.4926 28.2703
1081 1 18.969 30.608 -12.9557
1332 1 17.0915 1.93287 16.3082
1261 1 6.36879 17.2665 2.68592
227 1 -7.90402 16.1878 14.8184
1114 1 -7.03949 -10.8838 0.37941
472 1 5.30411 1.0159 2.86934
723 1 6.99363 3.62119 -0.238215
1254 1 7.41475 28.4523 14.1233
959 1 7.80842 29.4958 0.793855
1288 1 7.40612 16.3423 12.9663
1277 1 9.31363 3.13881 13.792
784 1 9.68048 3.12397 -26.2816
1024 1 23.2728 16.3696 1.96379
955 1 -5.3123 1.42968 -13.588
1620 1 -3.27379 1.38807 0.294335
431 1 -1.28237 -12.1501 2.35568
1262 1 -0.303777 2.04711 15.807
1634 1 -2.09672 14.5333 29.5193
1545 1 0.775679 15.7402 13.9624
787 1 -1.38896 -11.5238 0.84469
927 1 -1.27693 1.16649 14.9307
998 1 -12.818 17.6724 0.0475966
1640 1 26.8464 -9.49903 14.0012
1941 1 2.47088 17.6693 1.35102
600 1 0.692312 4.72388 1.02816
2036 1 -8.99838 18.0421 27.7262
482 1 2.34733 17.0196 0.525731
477 1 31.42 31.7514 15.1241
1852 1 4.82595 3.77588 15.4525
1225 1 19.3201 3.93987 -0.116748
1197 1 7.31802 30.7864 0.83654
1687 1 -6.25898 3.94217 43.303
9 1 19.696 17.772 1.74423
203 1 -18.7686 16.4576 14.6863
107 1 21.7838 3.30534 0.0255962
1779 1 -17.7983 44.8517 15.9894
1542 1 -3.29914 3.33427 0.223604
2003 1 25.3112 1.81704 15.4354
351 1 12.0059 2.8851 15.4873
1586 1 -15.1764 4.26131 15.7023
621 1 -2.24575 3.0277 16.6507
1583 1 0.446042 30.1726 29.5494
798 1 -0.393159 2.51781 -12.6378
1952 1 12.6064 3.32189 28.1399
644 1 -14.8877 5.04501 13.3618
1497 1 14.3991 5.072 -0.193929
140 1 14.539 33.9986 -0.559843
521 1 15.5526 6.36438 -1.35088
1757 1 0.47143 6.13647 -13.3165
745 1 -11.0052 6.11868 15.8006
1810 1 4.48213 5.25147 14.5816
1761 1 4.13667 5.20805 -0.296783
620 1 5.47747 4.63589 28.2432
207 1 19.5811 -8.41695 15.9316
1301 1 5.25091 -6.52641 -0.0629837
1438 1 19.1321 19.2496 1.31231
1910 1 32.6054 5.55343 13.8663
1075 1 20.5973 18.5016 1.84716
1724 1 19.3567 20.0087 14.3648
859 1 20.1261 -9.44618 14.3679
423 1 7.96497 20.1739 1.6619
288 1 8.37849 -9.29829 15.922
1525 1 11.2844 3.78625 15.2208
1348 1 9.55291 -8.18552 15.3992
597 1 9.35689 6.62178 2.10159
1260 1 -2.94137 18.135 16.5099
309 1 -14.769 -8.59052 15.1067
2028 1 -4.18922 18.4809 16.2978
1412 1 10.7312 18.304 29.0623
346 1 -1.90948 -7.79016 -13.88
1611 1 0.702478 -8.34299 15.8337
475 1 -1.11799 7.05423 13.8332
996 1 -0.48681 21.4829 14.7398
594 1 2.49987 -5.5889 15.5296
1453 1 -11.7272 19.907 -0.0177467
1085 1 1.69686 -5.96803 14.9805
1291 1 -12.5002 -6.08029 -0.0132282
1790 1 3.69268 7.6347 -1.25733
248 1 17.6849 20.2259 1.33944
155 1 16.4447 6.97293 -12.2629
469 1 3.51627 20.5009 14.1491
322 1 5.71476 -5.90702 0.588503
241 1 -8.89637 6.99028 12.4935
1742 1 4.60282 7.43293 14.432
202 1 17.7573 -6.63084 -0.321773
1768 1 -6.90363 8.37165 14.3362
204 1 -7.11862 6.8402 -12.7714
760 1 6.87459 6.99364 13.6808
112 1 -5.89309 20.631 14.2927
1129 1 8.55179 -8.49763 -12.3339
809 1 -17.1125 -9.70536 1.13083
792 1 23.3626 -21.2156 14.3619
142 1 10.9072 6.1289 12.8043
471 1 -15.8848 -6.79985 -0.413311
190 1 -2.45286 20.8526 14.8011
1068 1 11.7869 -8.39416 14.2383
612 1 -13.5956 6.65601 1.34714
1894 1 -14.6447 6.17277 15.6379
942 1 13.504 -8.18882 0.913575
1298 1 -2.03164 -19.6882 13.9538
1851 1 -0.225834 -4.41159 -0.307295
1725 1 12.7629 -4.81005 0.780818
208 1 2.55151 -4.68765 1.16855
1786 1 17.2396 22.733 14.4951
1847 1 17.4487 7.62671 15.3033
1042 1 17.5658 -5.65539 13.8866
35 1 4.64638 -33.0183 -0.610104
434 1 6.84742 8.61827 13.3433
1897 1 6.62005 -17.8806 -12.8588
1756 1 20.6408 23.3235 -0.491623
522 1 8.69988 21.6191 14.587
1653 1 7.9999 -20.8991 27.0386
1045 1 8.77696 7.11753 0.0721737
908 1 10.4619 7.63378 -0.152165
2033 1 10.1872 20.7623 0.678717
1406 1 23.8341 22.2433 0.0532228
1495 1 11.1924 8.3818 -14.1285
766 1 -1.13983 9.24803 1.72489
270 1 11.714 -5.37521 1.83454
438 1 24.5412 8.28499 1.17725
960 1 11.7377 36.1584 27.944
1738 1 -1.40696 -6.00743 16.273
1473 1 28.3163 23.1987 14.1117
703 1 12.4171 -3.3716 1.41705
606 1 28.5986 10.8937 -1.49228
53 1 29.2832 9.95924 14.7649
1668 1 -12.1441 24.0472 13.8629
1223 1 2.18888 -2.92906 -0.770898
1669 1 -9.15498 8.68347 0.804941
334 1 4.03854 11.8329 -0.199483
212 1 2.57657 -3.85541 -13.4855
209 1 4.76917 10.5241 -13.6859
1411 1 -8.42025 -3.81113 14.3914
1531 1 -8.68407 10.8267 -0.942366
1681 1 -34.0102 10.9524 15.2545
489 1 -6.95543 10.6783 -0.460462
1594 1 8.25876 -3.11169 1.19932
1180 1 21.4879 8.374 1.02421
1974 1 22.4146 9.23296 14.7536
328 1 8.83962 -3.89274 13.6111
2024 1 -4.24786 9.65658 15.6015
1340 1 -2.59828 22.9777 27.2595
823 1 10.5123 9.95442 15.0979
1858 1 11.4735 9.74409 0.894408
2037 1 12.794 21.8835 29.2073
1794 1 13.1601 -3.85735 14.2161
388 1 -2.11383 23.1878 12.6815
1641 1 1.4614 11.0354 14.7244
741 1 14.1401 12.5537 15.5693
1862 1 15.0931 26.5643 16.4755
1783 1 15.8144 -1.97273 28.9911
1826 1 2.48641 10.7318 14.3217
656 1 17.9085 25.6973 28.9038
1415 1 4.40659 12.4569 0.419584
1726 1 -7.28761 37.7985 28.3013
2 1 4.96156 25.316 0.324131
165 1 -7.36568 11.4284 -13.2244
1700 1 5.28764 -14.7957 27.2074
510 1 7.42281 11.2814 0.634014
1021 1 23.005 23.8973 0.948444
233 1 9.78029 11.4039 -13.0267
98 1 -4.83358 -2.68373 0.422119
924 1 9.84328 -4.30661 14.4836
6 1 -3.91667 -2.9405 15.4098
1330 1 -3.21997 -2.16746 13.3542
857 1 8.17044 -13.3453 14.053
1778 1 12.4856 25.7306 2.68957
1305 1 -15.0262 -1.5825 0.556211
1103 1 25.9504 -2.01928 1.59064
660 1 13.1981 -1.34995 1.86028
1860 1 12.9361 10.8959 14.2657
1771 1 12.0699 12.8754 -13.8499
1523 1 -0.340905 -0.369336 15.1
1824 1 26.5237 -0.543291 14.1479
1038 1 1.02744 -14.164 0.617142
878 1 15.1985 15.1886 13.5895
1680 1 -12.912 11.5473 15.5783
412 1 29.3201 -0.451578 -13.5818
231 1 1.41744 26.2982 15.4451
855 1 2.77264 -0.994893 15.0426
1661 1 3.66884 14.2816 13.2609
1297 1 4.91904 13.3471 -0.564268
467 1 5.11865 -0.599628 -11.7677
1703 1 -9.73175 1.20936 1.58116
1809 1 7.16796 -15.0468 0.204184
610 1 4.70105 1.21464 0.24459
1185 1 -7.62347 -0.795746 0.502905
58 1 21.3894 -0.529978 -0.295635
719 1 8.19057 12.2445 -0.862913
1612 1 6.98046 -0.253138 14.0601
866 1 -4.9341 1.39823 -0.786458
1938 1 -3.79913 12.8892 12.8791
1837 1 -4.439 -12.6679 27.6677
1096 1 10.9447 -0.449292 -14.0592
67 1 11.7015 13.2558 14.3585
898 1 11.1106 12.2576 13.8979
193 1 -14.5362 14.2133 0.683061
2014 1 12.4274 26.5953 12.4979
1469 1 -1.60626 14.0035 0.053284
5 1 1.43491 0.754343 -10.7405
457 1 -11.4643 27.4824 2.48558
565 1 2.36677 15.7496 2.29932
743 1 -24.1054 27.9757 2.25828
786 1 30.1839 -12.5508 3.08071
1321 1 -10.5591 14.2221 14.8744
1200 1 4.5416 1.63331 15.9652
1015 1 -8.70672 16.3398 2.96592
44 1 -7.81702 1.36117 0.505297
230 1 21.6193 13.0506 16.8835
1430 1 23.3149 0.435346 -10.5968
928 1 -6.0236 1.50882 13.0028
1255 1 -19.2511 0.412264 17.2013
637 1 -4.96281 0.722913 1.35289
864 1 9.24385 0.777181 2.15646
1670 1 -3.82383 13.4816 17.7396
551 1 -3.87287 -13.1233 1.27356
881 1 10.7222 0.0593607 0.628109
895 1 39.0338 -0.768099 -11.4121
1382 1 -0.574409 1.47114 -13.2816
323 1 -0.662668 14.2735 15.7882
764 1 -2.93059 28.0257 17.2527
1275 1 1.00403 14.904 15.592
1654 1 1.43435 3.38719 2.0157
1150 1 2.3819 16.4658 -9.38729
750 1 1.35504 15.8671 2.0091
55 1 29.8354 16.7765 -11.6643
795 1 1.26152 -9.98312 4.04737
706 1 4.33414 17.1858 -11.102
1256 1 -9.15362 1.73315 3.4599
1171 1 17.5783 2.82059 3.49059
695 1 18.5332 16.1795 4.04753
153 1 4.66058 18.3041 -9.53444
921 1 5.56447 3.13681 2.05271
74 1 -7.02192 15.5042 14.7613
542 1 -20.2351 -0.552013 1.95781
111 1 7.84316 16.1717 -11.7451
1823 1 7.49622 28.6136 1.48026
543 1 10.5658 -10.996 16.1264
152 1 11.1056 13.7068 1.59562
92 1 10.7617 14.9061 -12.1451
10 1 9.71328 1.72674 -11.6542
935 1 8.59542 1.75368 2.03451
1228 1 9.68652 2.90887 3.09926
1882 1 25.5596 0.364529 16.7905
877 1 12.8782 0.930029 16.7275
1829 1 0.500366 1.98234 -12.3072
826 1 -0.667274 4.15481 1.35175
96 1 14.3631 -9.51515 15.6406
254 1 17.7582 18.5819 -11.3358
1567 1 29.5226 3.91254 -10.9306
1558 1 16.9379 3.94576 15.7852
1429 1 3.33455 3.01912 2.69006
1177 1 18.6644 -8.5291 17.0008
1162 1 14.6425 5.83185 14.8977
2023 1 -8.68773 4.80954 -11.8487
1167 1 -9.53713 5.54458 3.81748
1299 1 -6.11849 4.8709 16.5906
20 1 6.54436 2.96733 15.4095
991 1 8.67005 16.8474 -11.3082
894 1 9.20122 2.24677 3.91575
512 1 21.054 16.6867 2.80467
662 1 8.27373 17.5595 16.8906
1026 1 -16.2134 2.99566 5.10141
614 1 9.55353 3.95478 17.039
1379 1 10.0047 16.8277 4.25156
720 1 -1.07704 3.65798 17.8887
1486 1 -0.326083 3.48277 15.919
1126 1 -1.44583 15.2778 17.5953
1881 1 15.3626 16.5362 16.8482
1329 1 -1.67581 2.78937 3.83018
563 1 0.333898 -10.0288 1.14181
1405 1 15.2889 33.0208 -9.6309
356 1 13.6227 18.5093 15.4787
1876 1 14.7711 20.5731 0.861596
1101 1 16.1815 5.52391 16.6146
1993 1 -10.2206 19.1465 1.46627
583 1 3.5168 5.74807 2.61664
781 1 15.7002 -7.62835 1.05251
290 1 4.51913 5.82369 1.93842
1456 1 5.41789 19.7998 16.7349
663 1 20.3328 5.93138 15.551
1186 1 4.66055 3.58749 3.72407
439 1 -6.96329 5.60594 2.83072
1616 1 5.25788 4.00284 2.90392
264 1 6.3495 19.1492 0.853499
205 1 -7.21587 5.34578 4.6099
816 1 8.57101 20.2619 2.87769
242 1 9.42328 4.51771 -12.2155
1067 1 -4.29955 16.345 4.98906
1106 1 -4.99651 5.88128 4.47134
195 1 -1.85179 4.81891 16.4003
223 1 -3.45903 17.9873 -9.6874
1198 1 -1.22146 17.492 3.0023
1448 1 12.3523 -7.27271 2.87811
1628 1 -3.18369 3.42197 3.34746
1548 1 -14.8749 -24.9329 -10.7609
1659 1 12.7929 5.41098 2.56808
27 1 -0.369431 -7.76519 -10.2379
321 1 13.8576 -6.33287 -13.2279
246 1 -0.353644 6.91597 -24.3164
1732 1 0.511668 33.6661 2.60865
1472 1 0.991893 7.04839 15.5399
554 1 14.3489 -6.18618 2.73086
2043 1 15.2033 6.23659 15.9273
513 1 16.0535 -19.6637 3.1588
81 1 15.6712 -6.54881 2.14901
274 1 -9.91888 7.20545 -23.4737
947 1 18.3168 7.2206 15.8799
1511 1 19.8259 34.2299 -10.6116
762 1 18.9796 34.2914 -12.266
182 1 18.2516 -20.9693 -26.8954
1118 1 5.77111 7.5293 2.43541
273 1 20.106 7.99671 1.58762
508 1 5.87696 8.6225 16.0423
17 1 -20.9088 -6.74452 15.6961
1420 1 20.3437 -19.4065 16.305
811 1 22.4128 -21.7922 2.60625
51 1 -17.4742 19.6137 2.66012
868 1 -5.01587 7.4565 29.1301
1440 1 10.4673 6.84529 2.65419
679 1 10.5911 19.206 1.16428
923 1 -2.84666 19.2452 29.6448
647 1 -16.2409 -19.1629 17.7089
1300 1 -0.444915 -6.32464 15.7686
1915 1 25.3328 5.37364 1.72299
2046 1 12.2375 7.34823 15.1914
694 1 0.0723661 7.12505 4.14741
715 1 13.7284 9.11728 1.26673
1679 1 14.2188 8.65477 29.3507
1788 1 14.3749 21.7603 1.20735
143 1 -0.187209 -19.2835 -10.9371
2047 1 16.4962 24.1531 29.0378
1522 1 15.2305 35.4195 2.31166
1878 1 14.6602 -3.96142 29.6211
1352 1 -10.1918 20.705 2.55153
1609 1 3.77089 9.90205 13.7747
1144 1 4.02598 -5.82263 3.08048
980 1 4.17998 9.77341 -11.7004
1401 1 17.7716 -5.06562 15.696
963 1 -8.48222 8.11051 28.871
42 1 -21.6715 8.83941 1.01226
121 1 7.74381 22.3362 2.9729
43 1 18.6138 -4.60568 1.68755
1707 1 5.4002 8.77725 -0.0678994
536 1 6.84504 22.5996 15.3026
13 1 -4.20785 7.86983 -0.438035
1517 1 21.1104 7.46929 15.2898
1196 1 -5.71831 21.3732 -11.0935
803 1 -3.35241 -7.27003 1.68456
425 1 9.62315 7.71867 -11.714
377 1 36.3265 8.12659 2.91847
794 1 -4.83066 -5.21988 29.1599
54 1 11.7503 9.29024 -10.2233
1633 1 -4.00382 -18.9942 14.6611
1709 1 11.4609 -7.17849 -11.8236
646 1 -2.37303 8.29542 16.5481
402 1 24.3165 7.54431 15.545
1065 1 0.731515 10.0029 1.29065
533 1 1.5142 9.00323 -12.0214
1389 1 -10.4437 9.26007 -11.8066
278 1 3.72415 -30.8581 1.10725
635 1 31.408 9.8557 3.03449
401 1 19.2466 24.8846 1.1877
1887 1 19.0322 12.3254 1.08956
416 1 5.23016 23.2659 2.54438
1355 1 -7.64031 -3.97745 29.0918
374 1 6.82027 9.65057 2.30909
590 1 6.04443 10.6602 -11.4964
783 1 -6.02137 -17.7504 -12.161
166 1 -5.94614 -5.12818 15.6752
1088 1 -3.64645 22.4628 1.82084
1664 1 23.7936 23.2618 2.58588
1932 1 24.7482 -18.0976 15.9255
326 1 -15.8707 10.2445 1.904
813 1 -14.7928 -5.03454 16.4187
1647 1 12.2358 -3.81694 16.2956
578 1 -0.419711 9.42883 2.41373
1623 1 25.9353 7.9495 17.5287
1289 1 -0.293892 -2.25903 15.182
69 1 0.167677 -2.2251 -9.83937
733 1 13.9691 11.7903 -10.8409
952 1 17.065 -2.20133 1.69636
570 1 29.0706 10.4235 2.02824
1574 1 2.84132 -1.84579 29.8269
253 1 -11.2823 10.9821 2.73217
22 1 -9.32496 -16.2729 14.7665
470 1 4.97708 -2.33866 1.98506
1282 1 6.31781 -15.665 -11.7737
989 1 -5.75472 38.9825 1.6862
558 1 6.05416 9.93415 16.8513
1979 1 7.16368 -1.42956 16.1772
758 1 8.00229 -3.70157 2.53795
217 1 8.40241 26.1954 2.08952
1313 1 -5.76974 24.2317 -10.1062
198 1 -5.35027 25.599 0.396578
1328 1 8.80618 10.5504 2.20624
1802 1 10.1337 10.7125 16.3652
1179 1 10.8321 -2.60891 -11.8697
2016 1 23.0357 11.5146 29.7343
1539 1 11.7977 -2.83101 0.732742
1775 1 14.1159 24.278 29.4468
587 1 -0.346825 -1.14311 16.9278
1234 1 -0.679552 9.45298 17.1719
1808 1 11.0321 -15.7989 16.3382
1777 1 13.851 27.4472 14.3116
206 1 0.618073 12.5053 17.2363
1814 1 2.50244 12.8679 16.8549
1349 1 -10.4456 12.8385 16.0999
1041 1 -12.3137 -41.0835 1.90178
1967 1 30.8095 12.1764 0.580795
145 1 0.286637 26.9237 16.3467
1965 1 4.62906 25.8309 16.2657
1093 1 17.8194 -0.520923 15.891
392 1 3.97789 14.544 2.99135
1959 1 -8.54264 28.0066 1.33561
539 1 6.05237 12.9188 -12.0461
2007 1 4.14926 13.9381 15.3173
1055 1 3.64208 -1.47716 -10.2122
1278 1 4.95139 26.8996 0.878357
343 1 21.1217 13.9142 14.8765
1504 1 20.9287 -1.36691 14.9737
1606 1 -5.56936 13.5217 15.6368
988 1 -18.174 -0.526362 1.46555
846 1 21.6352 0.820052 2.31573
1361 1 9.03563 -15.388 1.11913
2008 1 10.2 0.270553 -0.391977
117 1 -1.3184 -0.862719 -25.9738
485 1 0.420382 0.206047 15.3019
624 1 -0.765418 -0.351329 -11.2397
1443 1 10.8248 26.9088 17.3822
1124 1 -1.43419 13.0228 30.3803
1407 1 0.759307 0.140922 30.8021
336 1 15.2119 26.9934 17.4502
384 1 4.38636 15.3952 4.50757
530 1 17.6139 0.85688 18.6039
1736 1 2.62808 29.7258 16.9511
90 1 3.2397 -13.5592 -9.05809
1663 1 18.343 0.858691 -9.79036
1855 1 20.4383 14.4453 1.88977
1208 1 19.471 14.0053 15.9125
523 1 22.6237 13.3251 29.9437
162 1 -6.66738 13.8038 -10.8476
1735 1 -6.62586 0.262692 3.93058
25 1 -7.41279 -14.192 -11.1146
363 1 8.25476 14.2017 4.89821
23 1 8.97525 -0.632125 -10.0409
689 1 9.93376 13.0114 -10.6352
324 1 -2.55376 -0.525693 -8.81858
446 1 8.99146 1.30123 -10.5796
865 1 -2.74642 12.9949 19.6762
1597 1 9.99364 -0.212858 2.1115
1444 1 -2.29136 14.2216 18.0254
752 1 -0.143645 0.924595 -9.76842
320 1 0.154962 0.611967 2.73584
575 1 12.5106 -0.170328 4.10966
1331 1 -12.3155 -11.216 4.15718
848 1 -13.1919 -10.6882 32.2798
1960 1 2.08121 15.3963 4.37652
940 1 2.18494 0.655346 17.5906
1524 1 16.5498 17.1792 -10.0985
1649 1 20.1717 16.0168 31.8888
1945 1 17.4941 3.64796 4.29717
574 1 5.58197 1.98052 3.38289
941 1 6.14049 0.305934 17.0441
602 1 5.80225 3.16272 3.466
519 1 6.31517 1.31554 17.4054
1835 1 -7.82634 2.16476 2.22457
232 1 6.95968 14.8481 -10.7062
934 1 7.08068 2.02045 2.47135
178 1 23.0936 1.32942 -9.13687
1203 1 7.86003 1.48582 3.29365
174 1 8.80087 15.9802 16.6378
1166 1 8.38265 29.1132 4.22618
529 1 -16.8979 1.06005 -11.1179
4 1 -18.06 17.4963 -8.77594
840 1 10.3009 15.8284 4.54566
1570 1 -2.70444 16.1891 3.8317
468 1 0.400663 15.4176 -23.0163
244 1 -16.2556 1.75672 3.00611
1170 1 14.903 3.78926 5.09434
1421 1 0.388861 16.384 3.51262
1904 1 1.19645 14.7169 17.6258
82 1 -0.134087 1.91102 3.32143
1293 1 14.5679 29.293 2.98124
1715 1 1.06972 -10.0174 2.9332
949 1 2.92245 4.88217 2.21484
1971 1 2.38001 18.3722 -9.77947
445 1 1.52709 4.95912 -10.5242
1188 1 -11.3934 -9.94547 18.2419
284 1 16.8606 -23.0883 18.931
1000 1 4.55174 20.4785 18.014
1873 1 5.636 2.52988 18.8379
524 1 -9.84886 -9.64055 3.40696
1744 1 -7.94985 17.8082 17.3713
265 1 -7.35068 -9.08468 3.02535
1551 1 6.15944 5.71973 3.7552
1094 1 7.12945 17.6398 3.33204
567 1 7.91935 2.85585 17.5798
885 1 8.38357 18.702 -10.1955
1942 1 9.00451 17.0224 3.96337
1183 1 -18.257 -9.85949 19.8071
1427 1 -2.74722 4.03741 4.77678
1884 1 11.1605 15.1925 17.896
378 1 12.3846 -11.187 4.67596
1245 1 12.5722 4.28487 19.0891
1423 1 -14.2722 2.64397 3.92183
1475 1 -13.1305 4.65416 2.89706
731 1 11.6619 -6.18039 4.65956
267 1 1.1188 -7.92026 5.01253
1696 1 28.056 6.19744 4.2239
94 1 16.0262 18.8677 4.87492
1481 1 1.58617 18.4471 1.92661
1822 1 -10.2727 4.71443 18.0163
1214 1 30.6557 32.3563 -10.3505
456 1 3.18706 -6.35628 4.76448
99 1 3.36338 -7.43415 -23.7412
2019 1 -8.11065 20.5813 17.684
1484 1 4.30413 6.24971 2.97955
797 1 8.19463 6.06447 -23.7382
21 1 -6.67039 -8.8822 -9.76896
314 1 7.70851 5.79351 -24.9477
1003 1 8.99676 31.8558 17.7421
922 1 8.17631 -10.2161 4.80973
362 1 9.77162 -7.05136 4.6119
601 1 9.29356 5.78976 3.52785
1235 1 10.2227 6.5253 3.52366
890 1 -2.24997 -8.70012 3.63553
791 1 13.0008 18.4194 30.9419
1848 1 12.3232 19.3664 3.67522
672 1 14.0661 22.561 30.3389
943 1 -11.2489 -6.6319 -9.5873
433 1 -10.8237 19.7472 4.49003
526 1 1.82387 6.46916 18.3516
1244 1 2.18847 20.9658 5.25644
132 1 15.1943 6.76687 17.0749
1805 1 31.5212 7.95921 4.76568
1689 1 32.268 -6.51809 16.7921
1010 1 -11.074 -7.0646 3.0442
1650 1 6.13527 7.83301 17.2525
478 1 19.6868 19.44 5.39996
1992 1 18.5715 -5.47299 2.54846
1691 1 -6.47743 6.29205 3.42436
1885 1 7.26807 -6.93333 2.44077
139 1 9.04553 20.4881 -9.87374
678 1 21.1007 5.7502 4.45576
1449 1 -3.00687 19.4523 3.95748
1202 1 23.1703 7.15746 16.6096
1053 1 23.9254 -8.40701 3.22784
260 1 -3.93236 -6.03202 4.18459
289 1 26.441 -6.89442 -23.4453
747 1 -2.22584 6.51609 4.24477
134 1 -2.27389 19.6474 -10.5036
1408 1 13.3576 6.07572 18.1618
751 1 -2.27932 7.273 2.92429
944 1 0.122828 10.1836 2.9793
771 1 15.0268 -5.66793 17.1226
555 1 13.7911 8.16792 18.475
978 1 13.7089 22.6595 4.13605
316 1 15.1785 -4.68712 -24.5052
1665 1 16.3505 8.97303 4.69789
1273 1 3.24098 -5.56476 3.88961
1098 1 17.8688 8.65099 3.93291
1907 1 19.5847 37.4267 -8.642
1465 1 6.0585 -5.80819 18.2894
617 1 5.14728 8.87238 -10.1912
774 1 20.3451 -6.78647 4.12688
1934 1 -5.86165 -5.95497 -8.9599
670 1 -6.38597 7.51037 -10.1683
492 1 8.74909 50.1141 2.56699
257 1 -4.19988 9.01243 -10.2761
171 1 -3.11606 22.7457 17.3418
1969 1 10.3956 22.0731 18.7001
1391 1 9.13548 8.44834 -9.39844
465 1 10.1757 21.5847 3.04303
1721 1 25.538 8.64605 18.3073
366 1 -2.76858 9.13816 4.60111
7 1 -2.55696 22.4065 5.61689
168 1 13.9557 -5.64574 3.75006
883 1 13.2526 -4.54354 18.921
419 1 12.5612 6.68129 6.88676
721 1 14.6943 23.3835 3.96938
335 1 15.9033 -2.91526 3.93562
1087 1 0.211144 10.6562 6.07646
245 1 3.29769 24.5014 3.24531
358 1 0.954805 -2.65736 16.5577
1217 1 -12.0394 10.214 -10.5301
1033 1 -11.2844 22.8854 -11.2641
1155 1 2.18306 9.80962 -9.32023
546 1 3.56352 -4.86263 16.7177
104 1 5.20998 -3.30936 15.2652
607 1 30.348 9.76539 3.12279
705 1 3.96994 10.5196 17.6986
1972 1 31.6365 -2.85847 18.7167
1547 1 17.1221 -17.4365 18.7291
1341 1 19.8067 9.21778 4.14769
1618 1 -6.96948 8.89282 30.5104
1821 1 -6.3613 -4.02883 30.7557
1931 1 -18.2272 9.99873 16.7118
405 1 7.20245 22.0663 -9.57946
77 1 8.13909 -5.56728 3.7624
1883 1 8.30234 9.2123 17.3124
1066 1 22.3243 -16.3809 4.23404
628 1 9.83641 -4.48001 4.37895
1327 1 -2.28595 10.4728 3.09831
1622 1 -1.43781 10.1357 17.4461
1977 1 12.3865 9.5276 32.006
690 1 14.1018 10.1223 -8.68721
716 1 -0.659946 10.6418 2.24563
1693 1 27.2646 10.2113 17.7303
599 1 14.8964 24.442 5.48174
1886 1 13.7523 24.7279 18.4468
849 1 16.1594 -15.5867 3.53479
1366 1 15.3955 11.8955 2.78791
68 1 -11.753 11.403 4.61178
1160 1 1.04599 -2.81772 17.5816
38 1 3.66881 10.5871 -11.4492
776 1 3.44613 14.5952 17.6399
1054 1 19.0831 -2.42303 2.99933
1871 1 4.85201 -3.12808 16.192
1102 1 5.36733 12.9216 16.8658
1604 1 6.42153 25.3394 16.9772
777 1 7.16425 -3.04046 -10.9465
1044 1 -5.97896 11.5798 17.7596
1603 1 -4.22905 25.4762 32.3159
304 1 -4.02553 11.2996 17.6178
1587 1 10.2699 -1.34646 14.8911
673 1 9.03465 10.027 4.11914
1363 1 -17.3928 -1.77699 3.116
396 1 12.4113 25.3104 -9.37508
496 1 11.9842 11.0489 15.9464
1461 1 -2.40386 -1.70395 15.1897
636 1 -0.707585 11.3638 17.0077
872 1 -0.187926 -15.1031 4.3249
1325 1 12.7156 12.8498 4.96188
1688 1 15.1586 12.0584 17.756
1153 1 28.0045 -14.4219 -9.18649
2027 1 4.4362 -0.645888 -10.0205
886 1 3.30666 13.6722 -10.2356
531 1 4.22574 13.4471 4.66793
756 1 2.62469 25.9998 -9.22555
128 1 19.1905 -0.0729104 3.98366
515 1 5.66365 -1.42972 16.1402
1492 1 35.2081 -29.5072 16.4816
557 1 6.8647 -0.697148 -10.2034
995 1 -19.255 -0.400936 17.8499
1998 1 8.9299 -2.65401 16.9307
1519 1 22.4065 12.0988 30.4082
2039 1 9.51206 12.5134 29.5479
1534 1 -4.61618 13.346 4.77906
627 1 10.0133 12.7971 0.23302
873 1 10.4184 24.0351 -10.0952
1116 1 -2.97064 -1.6852 3.81363
595 1 38.1079 12.5563 16.2885
1146 1 -1.47649 11.6203 19.3156
1414 1 -0.0677597 13.5955 4.04469
1152 1 13.1901 13.9515 18.5931
966 1 10.94 13.6603 -11.0904
327 1 0.505894 0.414957 4.64815
1690 1 1.55932 0.138323 4.58327
718 1 1.32037 14.5312 19.8106
1909 1 14.6913 -11.5604 5.6124
710 1 2.65497 14.5898 4.91287
1372 1 -10.2267 13.6178 20.9797
181 1 3.09492 29.2703 -9.46422
1801 1 5.58844 15.45 4.3886
1571 1 3.87072 0.810007 19.9954
1046 1 6.19293 0.534698 4.4642
149 1 -7.32706 15.1002 -22.3119
292 1 -6.42855 14.3931 4.98539
1841 1 21.2832 -0.206096 -8.65135
638 1 32.5985 0.0941182 -8.75716
1478 1 9.56293 14.643 34.3705
1265 1 9.95862 16.0251 6.58314
1682 1 22.4134 15.2408 32.6521
1036 1 -4.63458 14.0299 3.99711
698 1 51.0541 27.2095 5.09794
2021 1 -15.4558 13.5794 19.1862
2018 1 13.9836 15.1419 19.0035
1875 1 24.5773 -13.3864 5.93736
504 1 39.7816 14.4943 5.83711
1476 1 -0.845303 14.9581 4.82699
1466 1 -0.808015 0.976524 20.6099
100 1 -0.911953 -0.390588 -6.85054
1988 1 14.1961 3.73211 19.5745
1259 1 2.74185 15.6754 18.9033
931 1 17.4839 16.2961 4.58908
1713 1 16.0494 3.54617 -21.8316
1229 1 15.6242 2.60779 5.21053
1399 1 16.9264 17.4169 19.8368
1322 1 -9.03323 3.33768 18.4775
73 1 17.527 29.1767 -8.20695
1242 1 18.9097 4.28913 18.6473
1893 1 6.87429 2.38169 19.1966
1070 1 5.70623 -10.3741 18.1413
830 1 20.1988 3.3073 6.13854
1351 1 -20.2615 15.9816 17.1562
1854 1 34.7252 -25.7812 -9.44314
1694 1 7.23853 18.1796 5.18828
28 1 8.67049 2.85532 6.84039
1220 1 9.80402 29.282 19.1012
582 1 -17.3031 1.71354 -10.1849
1540 1 -2.70561 2.07124 18.969
2026 1 -1.54786 1.81461 20.3122
123 1 10.4924 -12.7103 4.85764
2034 1 11.5755 28.354 6.46783
429 1 25.7897 1.71481 5.52272
1023 1 11.5715 14.5187 -8.41486
1317 1 13.6655 4.11569 5.1423
1498 1 1.33097 14.752 5.0372
158 1 -1.74752 2.80708 5.77833
1123 1 -12.8726 4.82611 -8.63419
56 1 0.0682076 17.731 -9.68516
913 1 15.2004 -8.98186 18.1414
1143 1 15.2784 18.234 -8.04359
164 1 1.39218 -10.5242 6.06341
337 1 3.92805 17.2359 -8.21207
658 1 4.16621 4.41903 -8.54379
170 1 20.9257 3.34811 -9.19411
1512 1 6.02069 3.88055 7.56817
1935 1 19.8093 18.3693 19.1017
295 1 -8.4075 19.1922 4.33334
216 1 6.32206 17.8677 4.51166
415 1 33.8324 16.9939 5.10926
1514 1 7.90043 3.47834 19.4831
566 1 21.5309 -9.44462 -9.53669
1356 1 8.15458 -8.63759 4.60701
1917 1 7.2062 2.80153 6.71019
1958 1 -5.98713 16.1546 4.85636
847 1 -15.9779 -10.3835 7.31536
1748 1 11.8684 17.362 5.04052
2040 1 13.0922 1.69857 5.98699
199 1 -0.43364 -9.80865 -7.54081
1953 1 -0.557211 3.2655 5.09233
317 1 13.318 -10.316 3.27674
218 1 13.8444 16.9742 6.90709
387 1 -1.29508 5.90961 4.72193
1845 1 0.891185 6.27315 6.28552
1060 1 -13.7861 6.51481 -7.30225
700 1 14.9744 7.09892 5.84211
183 1 15.5127 -7.59739 5.77356
892 1 4.61354 4.20751 6.01854
691 1 4.06938 5.96243 4.77021
1004 1 3.985 19.5658 6.07557
981 1 31.3582 20.708 -8.42882
188 1 4.87178 19.9486 19.1228
1764 1 -6.99995 18.7836 -21.0648
770 1 -7.47254 -7.79873 6.85338
1132 1 -3.987 18.8542 -9.32474
1963 1 8.5254 19.4807 33.0078
1267 1 11.5031 17.6491 -9.84622
1631 1 23.5955 5.72149 -8.57095
992 1 8.72239 2.38656 19.4377
697 1 24.4858 -9.90607 5.84784
1577 1 -1.62511 4.73409 18.1686
368 1 11.9295 7.48977 -8.1226
329 1 0.725446 18.6654 3.91174
2035 1 -0.854046 5.38614 5.53522
372 1 -0.814495 7.04331 -8.78051
11 1 0.0936329 -6.56807 5.41823
1556 1 13.8539 5.83581 19.2166
1362 1 13.2273 5.03183 4.61861
1607 1 15.6833 7.76447 33.4638
712 1 3.2697 -8.34217 5.15875
1740 1 4.8681 5.41986 8.64717
1337 1 18.637 7.82058 3.94465
340 1 1.8845 8.21055 4.45922
39 1 18.8117 7.49914 -8.39349
1856 1 5.09491 -7.653 6.54078
632 1 33.7189 7.83953 -7.99729
1513 1 6.99003 7.12873 32.6791
1296 1 5.96646 6.76966 18.6393
1869 1 8.16129 20.8941 19.9719
1529 1 -8.05502 6.83561 6.0997
858 1 -5.82386 20.2513 5.27064
1752 1 24.1186 6.42478 5.83072
1450 1 7.25877 5.49368 5.44698
1168 1 -4.31877 6.40697 -7.9537
252 1 10.8869 7.28651 3.7964
817 1 10.5693 7.1811 4.87395
1718 1 23.5202 -7.3189 20.5629
1043 1 -2.24404 -6.98472 6.25231
476 1 -2.35868 5.46584 -8.96245
1365 1 10.9584 5.55128 6.33113
1830 1 13.9888 -8.25609 20.816
1089 1 12.6509 7.91446 34.1091
177 1 -0.977281 7.98848 5.0609
1227 1 -14.3577 7.37411 19.554
119 1 -0.341021 22.0814 19.6101
1050 1 1.12058 -4.80282 4.65995
413 1 28.7143 8.12755 7.54286
1581 1 1.08247 7.35939 4.54693
1608 1 -10.4959 -21.0297 19.1996
1722 1 30.368 9.07133 6.40301
1266 1 3.21078 21.7864 5.59848
687 1 18.6708 8.62004 18.4701
796 1 -9.77467 -18.4567 4.85168
1815 1 20.7897 -6.48235 20.0421
397 1 4.55524 8.32678 19.2819
613 1 7.06978 -5.33771 -8.56519
176 1 6.75119 22.5078 19.7631
1249 1 8.53048 7.955 19.2842
2041 1 21.3426 8.17437 19.8284
403 1 7.74044 20.5221 17.7784
1702 1 -18.6122 -6.54597 32.2302
1982 1 23.3477 7.52178 5.16919
222 1 -4.25419 8.53446 5.41532
693 1 -2.41288 -4.04086 -7.36071
1230 1 -3.38232 9.5878 20.5075
1602 1 12.167 8.50336 -7.87721
2013 1 14.3367 22.784 -8.07848
1369 1 -1.3711 8.77919 7.75591
1207 1 1.45589 -3.81838 32.3938
1063 1 14.4461 8.66802 -7.11192
1464 1 1.77097 8.79311 33.0714
1312 1 2.42715 9.49666 19.2394
1154 1 3.49266 23.2115 17.7452
447 1 32.1339 -4.10673 5.28945
838 1 -10.0145 -15.0666 -8.08528
1714 1 31.348 -2.20719 17.9344
1872 1 -7.76431 9.41997 6.04026
1422 1 2.05442 8.84713 17.4714
1460 1 20.573 9.55445 5.06006
144 1 -20.4258 12.3037 4.30388
946 1 -5.83775 9.85754 4.34377
1541 1 -4.89045 9.91016 5.16414
1320 1 -5.24233 11.6246 5.25626
867 1 8.51001 8.84311 18.5992
52 1 9.47798 10.009 6.05262
1939 1 10.2842 -3.5228 18.3421
1380 1 -3.37631 -4.11642 5.50826
500 1 -2.30947 10.9864 -7.20632
1357 1 -2.06356 9.70728 5.30689
88 1 12.0527 10.5422 4.71231
845 1 -1.2029 9.53233 -7.82926
1451 1 1.08888 -2.83435 6.77415
696 1 0.910989 -1.92378 4.81924
41 1 0.600609 -15.6888 -7.68297
1543 1 -10.9193 -1.72791 5.55972
860 1 15.7796 11.0232 6.41472
692 1 3.02413 -0.63851 5.37535
740 1 1.69416 12.709 18.5893
418 1 17.0826 11.1411 19.3421
1636 1 -10.5634 -2.71189 4.46511
561 1 4.26513 11.2637 3.00018
1131 1 4.87324 -1.85472 -9.86476
564 1 -7.69698 12.2739 4.05475
1507 1 4.9028 9.98909 17.1413
1290 1 -4.96369 -1.56608 4.26201
648 1 20.5519 -3.21995 3.92603
262 1 6.46508 -2.14559 -7.04507
954 1 9.50561 10.8046 -8.55343
675 1 7.40948 25.1052 -22.0575
1704 1 10.5246 -3.24898 19.8549
331 1 10.8285 11.8311 -8.80701
1192 1 25.0318 10.0236 17.9041
1506 1 -2.7886 11.8578 33.224
382 1 10.9763 -2.86882 18.9143
1739 1 13.0644 -3.26223 5.04391
1749 1 13.1813 25.1985 -7.36752
452 1 12.4327 12.3718 6.50814
889 1 -12.8068 13.5584 19.1781
907 1 13.7253 -0.629277 5.32683
806 1 -0.413145 11.9775 -8.36326
1615 1 1.6244 -1.97962 19.2745
1791 1 30.217 27.8391 6.63574
1639 1 29.8637 13.2389 17.8192
938 1 17.2792 12.4942 18.3043
1182 1 31.9461 13.0575 5.48873
643 1 -8.66152 -0.934283 4.44523
1976 1 20.0418 26.7905 4.49407
1505 1 -7.97219 12.6786 -8.48219
1302 1 19.9668 11.0512 4.41561
1383 1 6.36973 13.5552 32.8345
1787 1 7.81246 12.3535 -8.65088
1 1 23.5194 -14.9553 -9.5547
1613 1 23.4324 28.0735 19.2252
1248 1 11.8469 25.7229 17.1463
64 1 25.2641 12.3259 4.41026
1981 1 11.4035 11.0627 17.6476
297 1 10.1002 -1.26825 6.38951
1819 1 11.6686 12.4489 19.1064
1232 1 12.8766 27.1814 19.4232
1184 1 12.2073 -3.11401 -7.82794
901 1 15.6185 13.6772 6.48378
1898 1 1.77147 12.6796 -6.37812
1833 1 3.09487 15.0177 19.7097
448 1 15.9187 -1.06471 -7.37039
1417 1 17.2554 -13.8057 19.7943
1584 1 18.8079 14.7698 6.76068
147 1 46.7939 14.4101 5.91686
1251 1 4.58946 14.1109 19.3776
822 1 -20.4301 15.5718 6.44872
547 1 -7.50029 1.32604 6.88271
285 1 20.478 -12.7511 6.04699
1789 1 -5.68485 14.2804 19.5754
1776 1 21.5732 15.7573 34.2969
1458 1 7.66953 15.2494 19.1969
737 1 -3.60048 13.6692 33.9957
1333 1 8.337 -0.166913 20.4433
280 1 10.5867 15.0244 5.84924
707 1 10.0006 -1.44799 -5.33882
1955 1 -1.07031 -0.0792822 21.7229
1364 1 10.937 0.255747 -6.52239
604 1 25.2381 15.0946 21.0461
355 1 -0.210173 1.15942 7.97954
1906 1 -0.0587563 -1.16743 -7.4862
1673 1 -2.21753 -0.500193 7.66581
1072 1 0.696932 -0.267655 6.57872
653 1 -11.7748 1.67263 -7.89776
61 1 1.42391 2.94626 7.48623
1294 1 -13.244 1.32965 -7.14303
348 1 0.0249186 16.3711 5.78708
1831 1 28.8065 1.98565 20.418
1957 1 2.51027 2.24161 6.53429
1781 1 3.67554 15.797 -6.95978
129 1 32.4531 1.19308 5.30464
45 1 18.2484 16.3171 -8.2482
101 1 5.83222 2.15192 -7.34703
874 1 31.9499 1.72043 -7.60554
1139 1 5.3241 2.63208 8.20352
294 1 -6.54412 17.3222 20.9759