ITEM: TIMESTEP
65000
ITEM: NUMBER OF ATOMS
2048
ITEM: BOX BOUNDS pp pp pp
0.0000000000000000e+00 1.3679807573413575e+01
0.0000000000000000e+00 1.3679807573413575e+01
0.0000000000000000e+00 1.3679807573413575e+01
ITEM: ATOMS id type xu yu zu
1548 1 3.64427 -14.5081 15.1691
1090 1 0.566714 1.03495 1.62467
1947 1 13.1046 0.771399 13.3116
1099 1 14.0491 0.0028224 1.546
1362 1 2.96914 0.667307 -0.257861
198 1 -12.5489 14.0345 0.797568
1199 1 15.9429 1.96996 0.959244
733 1 15.7927 15.4498 2.37032
1015 1 2.6383 14.6551 1.06213
531 1 5.46834 0.64393 0.157919
112 1 6.49696 -0.573342 0.935042
1324 1 -8.09788 1.10387 -0.695931
168 1 6.85644 1.80809 1.09832
582 1 -8.72035 0.5469 -2.28143
1972 1 8.1707 -0.313227 12.8214
176 1 -4.01448 15.1173 0.172338
510 1 10.092 13.0807 0.594711
1833 1 11.1988 14.8174 16.3312
534 1 -2.26946 1.28963 1.53654
1249 1 11.0253 15.0411 -0.0945827
1818 1 12.2222 1.88838 12.9677
1969 1 12.8931 0.996898 14.3301
1161 1 0.520597 1.60652 14.2604
1556 1 14.1258 1.15511 13.3234
123 1 16.5423 3.34303 1.20556
380 1 15.2324 1.26301 0.60536
703 1 16.6755 -11.3422 0.418278
1482 1 4.23506 3.3834 1.93096
1025 1 2.73219 3.81029 -0.179703
1113 1 5.82253 15.9722 15.2658
806 1 -8.60177 1.72316 0.0139629
1229 1 5.68935 3.29528 14.9239
1435 1 7.43204 15.067 -0.111955
1704 1 8.40935 1.32858 15.2806
1253 1 8.02641 17.2403 1.16241
181 1 8.02506 16.047 1.5935
399 1 -6.0434 0.94997 0.951956
1958 1 -4.33549 1.39433 14.8952
1176 1 10.6726 1.85195 14.5179
1659 1 8.68831 3.11121 0.406153
429 1 10.4296 4.28615 0.881093
920 1 8.80023 3.08989 1.58217
824 1 10.5738 2.16776 1.81339
1671 1 -17.9696 2.52636 14.4588
1573 1 -1.52285 1.83205 0.627308
939 1 1.33531 16.1243 2.52472
636 1 12.3046 16.4134 -0.0907901
1053 1 11.2127 -10.7597 0.451481
1385 1 1.83256 3.29359 0.98443
572 1 0.597826 2.9108 -0.0604774
761 1 14.5451 17.0104 1.62468
837 1 2.77528 -8.61164 2.45853
262 1 2.18243 -10.9413 1.82089
1977 1 3.92011 16.853 30.7009
775 1 3.04201 3.5372 15.937
505 1 16.3111 4.84628 13.5779
2045 1 19.0294 17.3416 2.52356
295 1 -8.35152 4.27505 1.69451
50 1 5.33021 4.34791 0.554844
653 1 -5.71684 4.75823 1.86142
1814 1 7.92336 4.46066 14.4567
1118 1 8.96061 4.27228 1.77272
727 1 9.48423 4.87539 0.786388
856 1 -1.67225 -7.93469 0.504015
1652 1 -2.05015 4.31769 0.489016
1737 1 -2.30615 3.76462 15.0415
1983 1 11.5132 2.47223 1.41487
1615 1 0.479291 2.5859 14.6809
685 1 -0.497817 2.39473 0.911909
1401 1 16.2629 6.06027 15.6952
1152 1 15.0391 4.43689 15.0454
483 1 4.08618 5.865 1.41814
431 1 1.37011 5.60873 2.24995
1782 1 3.4836 20.5684 13.8504
1460 1 16.8188 5.1709 14.9273
758 1 16.8451 16.3068 2.74664
707 1 5.28749 20.4575 2.68693
1649 1 18.1505 18.4308 29.3795
1888 1 4.77151 3.08986 13.0864
1658 1 5.59854 4.0043 12.4462
1528 1 6.27866 17.8592 15.3929
894 1 8.56651 5.35872 14.8445
1381 1 -7.0626 3.86209 14.3634
2002 1 -5.18648 5.24788 13.7159
1051 1 22.7372 6.20981 14.2633
1563 1 23.693 -8.88783 1.78271
315 1 12.3418 18.5228 -0.0525197
620 1 12.8968 4.79163 15.884
179 1 14.254 17.4989 0.433875
1889 1 -0.461483 19.026 14.2719
344 1 14.2643 -9.36358 2.39734
872 1 13.9001 -9.35518 1.34106
1788 1 13.4481 3.38836 14.4578
520 1 2.25539 -5.66204 1.33626
1391 1 15.0945 8.40652 0.886118
1186 1 0.98049 7.51863 14.1802
1295 1 16.1692 -5.01639 13.5938
1298 1 3.59734 -5.69161 13.819
1198 1 3.35964 21.9965 1.36113
1367 1 4.83913 7.59454 15.7379
115 1 4.27915 4.11049 0.58495
1893 1 4.74418 5.15373 13.8128
1378 1 5.71666 -6.33568 14.4696
1412 1 5.48841 5.32595 15.5581
202 1 7.61076 7.07284 0.341433
1165 1 7.68432 8.3462 1.33371
480 1 6.73872 21.5681 1.14159
1997 1 7.14042 6.84779 15.0938
1031 1 -6.54109 -8.5103 0.526387
1408 1 8.70131 6.66356 13.3449
1110 1 21.4244 5.98569 14.2406
793 1 6.16777 4.07996 -0.319481
2047 1 10.0016 19.5624 15.1652
84 1 9.74176 6.9802 -0.196473
1215 1 22.3205 6.49049 2.50073
253 1 10.135 7.20029 0.898384
413 1 12.9169 6.25653 1.33118
1882 1 25.3212 6.61724 14.8575
1030 1 11.9941 -6.37185 0.443049
1544 1 0.340306 8.14048 14.6124
1728 1 14.6739 6.84984 15.0272
734 1 11.7135 8.44029 0.652574
495 1 13.3652 7.12132 0.812069
1035 1 0.197232 6.116 0.758298
1138 1 -0.720144 7.8264 -13.6304
1735 1 0.62617 8.9482 15.0888
1885 1 15.6749 9.46174 14.2017
1831 1 17.0796 -4.09469 14.783
1038 1 3.44512 -2.99908 -0.467754
1207 1 18.3717 7.97281 14.7661
1713 1 17.4335 -4.79115 -0.3817
109 1 19.8639 -5.43287 0.3539
1320 1 5.97007 9.35336 0.719231
407 1 4.50702 7.34773 13.8773
1129 1 4.9928 -5.87638 -0.888632
701 1 19.7301 6.96808 13.4621
1901 1 6.66937 9.14526 15.2879
1672 1 -4.97844 7.93504 14.9239
1097 1 -4.80557 9.07731 14.6455
1405 1 10.4 8.41434 0.74645
26 1 24.6997 -5.86458 0.183838
643 1 -2.64306 7.5575 1.22767
2 1 -0.247767 9.2464 0.987681
1058 1 1.02207 9.8105 14.2763
398 1 -0.522559 10.1532 0.615711
949 1 -0.394547 11.1831 -1.45159
844 1 0.182028 -3.56174 15.2689
1094 1 2.0597 10.3084 13.5521
1230 1 2.65021 11.2694 13.9817
1342 1 18.7432 -4.93489 14.3129
1383 1 4.57648 9.56618 28.4677
573 1 19.306 -4.89802 13.3259
549 1 -9.35459 -4.11586 0.0416572
898 1 6.05792 7.88781 13.0184
1389 1 -6.36693 9.04411 0.679479
631 1 7.99816 10.3221 2.28176
1687 1 7.65684 9.49437 28.9748
1629 1 7.05934 -5.0386 13.3865
267 1 -6.89431 -3.90775 0.10692
1146 1 8.18017 24.3592 13.6833
1961 1 10.0426 -2.70111 14.6498
1160 1 -5.93661 9.40649 13.2792
1955 1 -3.43386 -3.71518 13.3065
954 1 9.72599 10.0613 1.42876
1834 1 -1.32653 -2.59607 14.2518
451 1 -4.32112 -3.79651 0.441405
975 1 10.889 9.16494 15.2341
588 1 -1.12749 9.1001 14.0729
1808 1 13.491 -1.2161 0.304607
599 1 12.982 10.9657 -0.349044
39 1 1.18609 10.8334 0.295525
1692 1 14.3984 11.7717 14.7406
80 1 1.21026 11.9964 0.075645
13 1 1.46508 -1.10785 1.1073
471 1 1.75308 11.4113 -12.7335
964 1 1.38265 12.1575 -1.12997
1455 1 3.25678 12.246 -0.3007
1836 1 19.9288 -2.63859 12.8709
1923 1 4.80342 -3.01403 -0.272812
1890 1 5.16264 -2.31533 0.535003
863 1 19.8255 -3.30727 1.17688
1765 1 -4.09809 10.6899 12.589
185 1 6.61951 11.3222 1.67967
595 1 22.1384 11.6498 13.2777
1244 1 9.73627 10.8773 -0.0363028
120 1 9.04654 13.3969 0.403008
2046 1 9.09761 12.2828 13.906
1469 1 11.5618 11.4584 -0.124641
1709 1 10.3557 12.331 1.62865
1989 1 -15.9314 10.9268 14.7329
190 1 12.905 11.7886 1.07245
2022 1 13.1818 13.556 14.4528
1135 1 1.0109 0.298728 13.3736
1883 1 16.6315 13.0851 15.9579
931 1 1.57568 13.4557 1.50583
912 1 4.08558 11.48 0.209966
214 1 15.8792 11.8252 -0.43157
292 1 2.50482 -1.3015 14.1699
803 1 4.58993 -1.21287 0.999197
684 1 6.51662 25.9333 2.04573
996 1 -8.10532 12.3482 14.4569
859 1 19.2403 -2.21937 15.32
161 1 6.65988 11.9642 0.832423
1633 1 6.62959 0.37168 15.3127
87 1 5.68242 13.1966 13.8641
1032 1 -6.71224 -0.876094 0.0479045
1121 1 8.53079 -2.73745 -1.12393
216 1 8.14539 12.8173 0.0488889
1879 1 21.215 -0.226301 14.4546
160 1 21.2951 11.605 0.574752
406 1 10.2296 -1.05531 -0.394288
991 1 9.10433 13.0396 -0.59144
1807 1 8.22704 0.29226 13.7487
268 1 10.8072 -0.867092 2.35538
347 1 11.146 12.3944 14.0072
1921 1 -1.30446 12.8088 14.1871
148 1 -1.52855 13.5958 1.06952
1854 1 28.0588 -14.2227 0.563054
753 1 1.60659 14.7039 1.73874
459 1 -0.594052 1.23391 2.46269
1998 1 2.57829 -0.455654 14.8763
82 1 3.07261 0.504867 1.94767
1850 1 15.7937 0.22628 14.1685
1542 1 4.03296 0.845028 2.35528
1458 1 4.99561 15.9149 16.9896
1329 1 4.2806 0.619745 14.9926
1677 1 5.81254 15.6115 2.66387
316 1 19.8751 -0.40619 -11.5803
218 1 5.81576 15.1207 0.816892
1965 1 5.80414 14.8323 15.5523
1390 1 19.9346 0.61019 16.4432
1641 1 7.25585 1.10575 15.8029
1844 1 9.56733 -12.1296 15.9604
464 1 -2.36239 16.0875 3.938
328 1 -5.41244 1.18699 16.3395
1813 1 -3.29718 1.07715 15.2805
1184 1 9.82372 0.317157 1.00981
1530 1 10.3601 15.3944 2.97308
657 1 -2.78661 14.9852 3.7934
103 1 -16.4353 0.156097 -12.4111
2013 1 11.8674 14.2229 3.32864
341 1 -1.4522 0.750226 -11.3619
485 1 0.323079 3.21293 2.63699
1948 1 13.6122 15.7163 29.5254
29 1 14.0015 2.26969 3.16367
880 1 14.6116 15.2531 2.45771
770 1 1.20147 1.97975 15.0999
694 1 3.20728 15.0221 2.82499
1396 1 3.80015 16.1499 15.1059
1865 1 17.7799 15.2794 14.4654
1225 1 4.87131 15.7743 1.17044
1534 1 5.85639 15.3285 3.73782
490 1 3.21148 15.3457 -11.8293
845 1 6.78386 15.0284 3.46054
506 1 5.38199 14.0733 1.23153
1580 1 22.3449 2.20271 16.032
926 1 19.7793 16.7668 2.36331
1221 1 9.72691 16.4419 2.5454
417 1 -6.77602 15.8284 2.22124
513 1 9.55506 -10.3289 3.57092
221 1 10.6246 16.946 2.27451
159 1 10.8117 17.9163 2.23373
779 1 12.1341 2.77585 -10.4268
1862 1 11.6952 15.7234 16.2044
1662 1 12.2426 2.53126 4.29992
785 1 11.0885 -11.0006 2.98647
1512 1 -1.02276 1.54112 15.233
2011 1 13.0741 16.7449 17.1908
94 1 15.1252 18.2543 3.521
1497 1 13.2925 16.9177 1.89829
893 1 14.9216 -10.0553 4.83071
976 1 2.3656 3.22746 3.01347
500 1 1.36652 3.54767 -11.2394
1227 1 -11.4953 3.83805 15.4937
1790 1 4.53418 16.7846 14.6131
462 1 4.02102 15.8391 3.90934
1946 1 32.3293 16.3579 2.08388
805 1 6.62626 2.4768 3.25936
1299 1 5.75164 4.31941 17.2369
1531 1 19.3362 5.81803 2.78137
1511 1 7.21862 17.9404 1.52255
791 1 7.74752 3.18852 15.8629
605 1 7.84492 4.33796 2.94775
940 1 -4.77422 3.27112 2.71584
1718 1 22.7009 4.5451 16.4004
1522 1 9.97814 17.7535 2.96726
381 1 9.79423 3.62062 1.90046
1103 1 11.3027 3.71232 2.93893
1368 1 12.459 3.80687 15.4855
1631 1 13.6057 5.77943 2.6408
311 1 12.3564 3.60894 0.80231
51 1 1.57853 4.62689 2.48085
633 1 14.4609 18.8928 3.08153
1414 1 -0.127119 18.945 1.5622
1271 1 15.691 5.4236 16.7307
1258 1 -10.86 7.28707 1.90617
1905 1 18.0801 6.53762 2.23725
1359 1 3.53277 5.86604 16.1067
1858 1 5.04993 4.78464 16.5429
1550 1 4.68477 5.71359 2.79605
31 1 6.29537 4.94044 2.71322
746 1 -7.67266 18.8327 1.05749
504 1 21.139 6.95225 2.68175
1430 1 19.2778 20.102 1.78465
1294 1 -7.03719 5.63223 1.90626
349 1 21.4681 5.77191 3.85589
2042 1 11.5786 19.066 16.7242
442 1 23.1145 4.69544 3.76165
1040 1 9.81875 -8.23589 2.67129
828 1 11.2462 4.77359 1.34997
1168 1 10.5139 5.39536 4.06688
519 1 -1.41618 -9.85167 3.40523
1447 1 10.7991 5.44071 15.7718
252 1 -1.89285 18.3447 2.24824
909 1 12.4778 5.64995 2.78552
1750 1 14.2358 6.10127 3.36787
365 1 0.847469 5.47808 1.36992
1607 1 1.01733 7.86198 29.1334
1480 1 0.100656 20.0019 15.4896
1951 1 14.3378 6.86303 16.1409
2031 1 17.0791 6.55975 1.61155
1938 1 1.66528 7.5928 16.4076
14 1 2.76834 -5.62576 2.66591
705 1 -10.1314 7.31083 2.63733
368 1 6.17913 7.21405 2.10591
1023 1 18.3179 20.4823 1.31322
1485 1 5.63439 7.79287 2.71946
1852 1 6.37135 7.29923 16.9817
589 1 7.74875 19.4071 1.78073
958 1 9.25499 5.68594 3.47039
1075 1 8.66586 21.2672 2.75324
1148 1 9.97888 21.7431 2.00195
822 1 -3.94393 6.45389 2.5104
294 1 -2.65772 7.53546 16.019
709 1 -1.80238 5.49892 1.61283
1775 1 11.1608 6.37875 16.2038
1640 1 12.4043 6.84563 3.35523
1543 1 -0.928151 -6.85105 2.22885
86 1 26.5375 -5.35605 1.05475
553 1 2.02589 -7.2634 14.7528
1305 1 13.6262 8.47452 2.32108
810 1 0.721996 7.99213 4.04225
877 1 12.0775 9.69832 2.41065
1632 1 16.4847 -6.31803 0.652526
914 1 0.436013 -6.08027 3.04476
1966 1 1.4026 8.68845 15.9062
1670 1 2.37686 9.00157 15.4857
1033 1 3.70255 9.2113 2.02174
1001 1 4.95378 10.0194 2.42154
634 1 3.93302 7.45499 1.61156
627 1 4.11539 8.34154 2.41133
445 1 20.2536 8.89731 2.63817
1839 1 4.93251 -4.97145 15.3876
1006 1 4.93276 21.8137 3.59034
2040 1 7.04061 7.87351 15.9044
936 1 7.97508 7.52413 1.92702
1513 1 7.68161 8.63924 16.0618
1933 1 7.22438 8.59519 17.3075
797 1 9.09379 5.57733 2.07853
1722 1 21.2082 7.70789 3.30183
133 1 -5.03436 8.42483 2.09541
1440 1 21.8563 6.77292 1.31093
1690 1 9.21415 7.24697 15.5236
789 1 12.5019 -6.3205 15.0048
1000 1 -1.70945 21.7691 15.6362
2014 1 11.7086 7.71067 16.8907
1247 1 9.8089 9.03747 15.294
35 1 -0.0687915 -6.18352 1.8598
1179 1 12.5394 -4.81461 -11.1108
1924 1 -0.965938 10.3476 15.2989
932 1 -0.519392 9.68918 2.42957
1799 1 1.52543 -4.12236 15.1615
1173 1 2.53235 10.1219 14.9178
157 1 17.6976 10.2158 1.75083
1755 1 2.81023 24.8755 2.71431
537 1 17.087 -3.59241 16.3607
290 1 -8.02965 9.56897 15.3206
679 1 7.04931 10.3835 1.89904
737 1 -4.68119 10.2329 16.3304
1095 1 9.12004 10.8734 15.3294
289 1 8.7081 9.2017 -10.5888
2021 1 -3.9392 11.9442 16.189
1916 1 10.7694 -3.43627 15.2105
1409 1 -2.81399 8.84057 2.63257
125 1 11.014 -3.84768 -11.1023
1959 1 -3.85657 22.8248 2.63487
998 1 -3.18868 9.2583 3.54334
271 1 -1.17328 -2.26813 -11.781
424 1 -1.7121 9.15027 1.48895
714 1 2.03502 11.206 15.6475
1590 1 0.630614 -4.23582 2.41417
638 1 27.1795 -0.636674 2.33984
1077 1 15.1379 -3.16816 1.4338
1279 1 3.25405 24.5885 1.65165
1273 1 1.57167 11.7645 2.78412
865 1 3.47051 11.8614 15.5966
1776 1 3.3511 11.9752 14.4975
1340 1 5.48366 9.87875 27.156
982 1 5.88067 10.7217 2.24229
1698 1 -10.1017 10.4291 14.2757
952 1 6.12212 12.337 -10.2808
1205 1 7.34599 10.1914 14.5029
533 1 7.5417 -1.60656 1.58488
1927 1 8.43902 11.2239 2.476
1532 1 7.962 11.1465 15.1493
715 1 8.53117 13.3463 1.43719
1886 1 8.87245 11.2505 14.3739
1275 1 -4.18303 11.8468 15.0021
1042 1 -4.13887 -0.720504 1.53194
1429 1 8.52218 -1.26504 1.05219
153 1 11.8034 10.6708 -11.0601
579 1 11.8421 -1.72956 1.13706
1374 1 -1.66065 -1.25467 2.05331
1052 1 11.7232 9.98488 0.949027
1978 1 13.3211 -1.66587 1.9245
177 1 1.53997 0.333212 2.46031
1350 1 -13.1707 -1.0602 15.4047
325 1 0.563776 -1.15701 2.98663
2024 1 0.550108 13.5025 16.9203
309 1 15.2146 -0.205538 3.59648
1013 1 15.8488 28.3273 3.11378
1761 1 2.18175 12.6036 17.3064
24 1 2.5154 -1.46231 2.74179
1394 1 3.57608 0.144803 14.4945
11 1 2.42895 -1.41241 1.71849
870 1 -9.13226 -0.292564 15.3402
712 1 6.53639 13.2531 3.05094
1674 1 4.75554 -0.0392037 0.538653
336 1 8.33658 13.7003 16.7715
518 1 7.15643 -0.717241 1.67029
1012 1 7.283 12.2197 2.84557
457 1 8.22553 12.3278 2.42935
1823 1 8.05765 14.0718 15.6472
1912 1 8.16509 -0.924516 17.1964
512 1 9.16259 14.0676 1.97068
1768 1 -4.89611 14.2899 14.5126
1613 1 10.5397 13.8286 15.8764
843 1 22.5448 15.5324 16.9801
526 1 -2.40802 -2.05872 2.17278
454 1 -2.05328 13.5536 2.09084
1743 1 -0.567732 14.1673 1.74703
808 1 0.537603 0.544914 2.52391
869 1 -0.84343 -0.706996 15.285
67 1 -1.25907 13.2987 2.74639
362 1 11.2885 -0.847696 1.48967
1217 1 0.655962 12.6044 4.15108
131 1 0.149751 1.20795 3.34399
2020 1 0.294631 14.0759 17.7132
165 1 0.206426 13.1321 -8.55582
697 1 17.8618 14.7302 3.46364
1442 1 1.48723 14.0789 19.6011
1380 1 1.08899 0.717627 3.32306
1660 1 5.1026 14.9042 4.2234
1594 1 17.3757 13.4833 16.7915
391 1 5.2417 1.13039 3.16987
1525 1 6.7931 15.61 18.2296
171 1 4.05302 14.5064 4.60017
997 1 6.87038 28.0978 4.93831
1022 1 21.0458 -0.0940442 2.56108
2025 1 6.56977 15.4349 5.73537
1332 1 7.73797 1.39299 17.7825
293 1 -7.81981 0.599867 3.87959
509 1 8.68671 14.5729 3.81232
1627 1 8.98477 -1.61246 4.30603
965 1 -3.98664 15.0835 3.78557
1932 1 10.1535 0.382905 17.5995
1835 1 -1.92756 1.47455 4.93745
390 1 -0.484014 13.9119 2.97485
1082 1 12.4043 -0.347047 3.85606
1945 1 12.9432 0.1225 4.78513
426 1 2.41547 15.9977 3.44413
1432 1 15.022 16.5058 3.5024
1109 1 3.11998 2.65021 4.31508
1716 1 15.8778 1.8866 4.38518
1754 1 15.4856 14.7826 5.07056
948 1 6.35021 17.1477 17.1196
1758 1 16.8291 15.2577 3.82109
787 1 4.08524 2.08349 2.83531
105 1 5.79739 2.64252 4.52415
20 1 7.09313 4.33635 3.6522
842 1 7.61043 0.713448 -10.3178
1266 1 6.74452 3.02547 4.37288
1920 1 22.0193 2.87804 17.2338
1327 1 8.98545 2.94181 4.49857
1096 1 7.56242 1.92034 3.07085
1727 1 9.97375 2.93811 4.62386
226 1 -3.60822 16.21 3.53273
1219 1 11.9927 1.72495 3.49219
1832 1 -2.22643 3.39819 31.5838
905 1 -3.40624 1.75451 5.67271
1134 1 -0.792796 -12.874 3.79793
547 1 -1.98813 3.18757 2.11184
1354 1 13.241 2.82266 4.50748
1064 1 -0.682235 2.32796 2.89529
1081 1 15.0857 15.5329 3.43233
488 1 -0.656687 15.5515 3.74983
411 1 13.8828 1.88226 4.37135
617 1 3.09093 5.53442 3.41788
210 1 14.0952 16.6958 -9.73365
1029 1 2.72839 -9.30918 16.8823
363 1 1.81354 3.678 3.93056
1418 1 3.93733 18.7121 16.7183
1759 1 16.9033 2.89419 5.38016
924 1 4.09351 4.20724 3.72157
1436 1 4.92742 18.2163 17.8388
1625 1 5.6771 4.36578 5.44193
382 1 19.2608 2.13692 5.56407
1855 1 20.6307 4.15657 16.2169
892 1 5.92506 4.95713 18.2762
275 1 7.3914 3.25176 3.21674
663 1 8.65384 6.05652 18.2113
1793 1 8.85439 4.29353 18.6452
1343 1 8.37552 5.4782 2.86207
324 1 -4.02365 17.5464 -9.22938
265 1 -4.94901 3.9138 3.62251
1647 1 11.0001 4.83424 5.02455
452 1 10.5611 18.587 3.10062
1665 1 -0.91774 4.73993 3.35296
1518 1 11.607 18.4641 17.774
219 1 12.4753 16.2265 1.79954
2036 1 0.505493 3.96169 17.164
1159 1 -1.0544 -8.99468 4.63568
1820 1 -0.240718 -9.62506 16.5079
1707 1 13.6937 5.38741 17.5899
40 1 1.89454 6.23367 3.59053
71 1 1.19249 5.54106 4.12882
370 1 16.0557 5.37739 4.06515
1393 1 4.245 5.25782 4.1752
580 1 1.90753 6.53102 2.53778
867 1 3.41448 5.83914 4.40548
1508 1 3.21191 4.62747 4.13068
1427 1 3.76769 5.16348 5.21767
332 1 6.74732 5.28999 3.76632
1896 1 5.97207 6.3034 17.5692
514 1 5.42877 5.3182 3.78519
921 1 6.88412 4.75163 4.99117
1263 1 8.51221 5.09082 3.99123
1344 1 20.6344 -7.92706 4.59075
1011 1 7.34477 18.9116 2.70316
1496 1 9.9016 6.30663 17.7423
1940 1 10.5487 5.99359 16.931
807 1 10.4534 4.39819 17.7897
852 1 -2.20383 6.40287 3.66965
1804 1 -1.79078 -6.66666 18.3176
432 1 -1.41598 19.7802 6.13748
75 1 -1.25036 5.56672 5.21023
1417 1 1.35428 -7.18903 18.2771
1479 1 3.96559 21.8049 3.475
612 1 3.2356 7.2853 3.83205
611 1 4.57945 7.42523 2.98716
248 1 17.4834 20.0679 3.28715
833 1 4.84498 6.16849 3.92685
1786 1 19.1544 20.5894 18.6814
334 1 4.98006 7.83993 4.51094
466 1 6.7362 6.09166 2.78443
749 1 5.2847 7.07603 3.71434
1200 1 6.87718 6.88387 4.16659
418 1 5.89705 8.33406 3.6413
1514 1 5.96953 9.73614 4.65292
1092 1 -5.80051 -5.9143 18.2721
430 1 -5.99994 20.2405 4.96707
973 1 8.97798 -6.85076 3.42267
596 1 -2.85176 7.14702 4.19916
1623 1 12.2711 -8.12909 17.4949
851 1 11.147 7.65943 5.13474
890 1 -0.700474 6.53897 5.58017
1535 1 12.9869 19.9575 17.697
651 1 -0.658824 7.01035 4.65728
953 1 0.333496 6.92766 -9.72675
320 1 -1.15801 7.5913 4.02313
619 1 -0.23609 6.7378 3.13425
1360 1 0.860596 -4.94744 3.14071
1895 1 1.19168 -6.77038 3.52041
152 1 -0.194198 8.49153 3.4918
879 1 1.67896 7.66954 5.00047
27 1 2.05998 -6.14324 -9.60977
174 1 3.54897 20.6128 4.98001
2035 1 4.42952 7.18111 19.0978
688 1 2.97538 9.20661 2.87604
1618 1 3.78661 7.97631 18.2969
667 1 18.0078 7.17891 3.99675
356 1 6.42434 8.46999 18.1143
1114 1 5.5435 -4.88536 2.70475
1303 1 22.1704 7.02482 4.30718
989 1 6.07616 21.9941 1.80254
840 1 6.94918 9.67185 17.9046
974 1 8.15919 22.4674 4.28193
484 1 -4.16931 6.85821 4.77709
1211 1 22.2961 8.21712 17.2674
1848 1 9.43407 8.29593 2.93442
813 1 -3.84838 7.8416 4.09776
73 1 9.53037 9.75933 -10.1806
1771 1 10.145 21.1009 3.07644
1985 1 -3.06322 9.70701 18.0836
2029 1 10.5391 8.28305 3.54563
1364 1 13.9705 -4.07718 3.41071
154 1 12.9058 7.74239 2.85591
1877 1 -0.789061 10.9028 16.5028
375 1 14.8969 10.6253 3.31485
1089 1 1.959 -4.93023 16.8568
1346 1 4.12597 -4.73467 4.11912
1805 1 15.5655 9.88578 2.43521
751 1 17.7367 9.35923 3.01384
345 1 18.7237 10.9269 2.8761
61 1 4.17457 10.3035 3.38643
1796 1 5.22348 10.416 3.64267
961 1 -7.68206 9.81909 2.63245
1128 1 6.8972 -3.55701 16.8073
317 1 7.74663 -4.0957 3.63399
1581 1 8.78159 -4.17445 15.5793
1571 1 7.93284 -3.79519 18.496
1680 1 -5.00527 9.92743 17.9043
1175 1 10.2944 11.1997 1.87092
1308 1 10.3402 10.2835 3.56533
308 1 8.12252 9.28612 6.42122
946 1 -1.89427 9.32781 4.00305
1085 1 10.9103 -2.82668 4.11764
1241 1 9.69134 9.82099 19.0715
481 1 -3.64844 10.2791 2.50541
1481 1 -0.971128 10.0017 4.54166
400 1 -1.13737 8.80616 4.53837
423 1 -0.106345 11.6242 2.86609
1567 1 28.4134 -2.40911 1.99996
922 1 13.5439 11.0481 15.5364
1144 1 -0.126539 -3.14296 3.71006
1196 1 1.72684 12.9141 4.4647
1995 1 -0.669096 11.5729 3.69459
1596 1 14.3483 -2.15139 17.2935
1861 1 3.04239 9.73435 17.7789
545 1 2.43711 10.2422 3.3429
1289 1 4.02267 -2.76167 2.50068
222 1 2.74395 9.85623 5.06001
1857 1 4.90949 -2.91528 15.1288
1066 1 4.78483 -1.78379 2.94054
1898 1 5.84912 11.8214 2.59755
899 1 -6.84322 11.5573 31.0951
1406 1 19.7846 10.8473 3.18202
1281 1 -8.45319 -1.56828 3.84955
917 1 9.02824 -1.72268 3.33124
2039 1 7.18272 11.0924 16.3731
1614 1 9.58727 11.0012 17.1339
1810 1 8.93303 -0.72484 16.5409
836 1 10.5945 12.0777 3.03747
562 1 9.42522 -4.86029 3.83966
1733 1 -1.94967 11.5093 3.29789
639 1 10.7248 11.0681 2.96555
122 1 11.0594 12.5375 3.93375
1145 1 12.1665 10.7517 3.94787
299 1 11.4298 10.142 -10.1981
1248 1 12.1467 11.0549 5.97171
1166 1 11.5281 12.4576 3.05227
1345 1 -1.13211 -1.63265 16.554
1517 1 2.66906 13.4609 4.11095
250 1 12.1273 11.9634 -9.60009
517 1 1.45681 -1.06546 2.27151
1277 1 17.9083 12.6974 16.3895
144 1 2.51873 -0.0670798 3.07656
437 1 4.83265 1.40343 2.28872
1131 1 5.28179 -0.787934 1.97895
1712 1 4.62731 13.7411 2.75266
1974 1 18.9348 12.9552 16.7692
1216 1 4.50408 -1.93893 1.86383
392 1 4.82106 13.9024 3.84147
674 1 7.22096 13.5975 4.13737
245 1 8.36665 13.0947 4.58889
1388 1 -3.91747 1.04254 4.96958
397 1 7.94593 -2.09484 3.36754
1752 1 8.62515 -2.51647 17.7073
272 1 -4.39635 0.856278 2.96389
1753 1 9.84467 13.0596 2.51484
1588 1 -2.60931 -13.8812 3.10265
1918 1 13.3388 12.8449 3.39271
1063 1 14.0302 0.457301 5.84154
18 1 -0.640943 -1.01617 -9.25619
1723 1 14.8696 13.7609 4.81996
236 1 0.725415 15.0319 -8.36719
895 1 13.383 0.100572 7.07378
644 1 3.05884 0.545866 17.2447
48 1 3.82521 1.9311 -8.64512
482 1 3.27208 13.8314 5.08142
1410 1 5.00349 13.154 4.64206
1021 1 5.12169 14.0725 5.07557
142 1 6.09905 -0.0429777 4.82617
884 1 7.64092 1.66268 -8.46981
1646 1 5.81142 -0.547244 -9.70353
36 1 8.13259 0.533769 4.6096
322 1 5.8823 0.589859 5.87225
1769 1 9.58758 28.5412 19.9206
1313 1 -5.00914 15.5065 4.39277
1203 1 9.07485 13.8036 4.90426
1379 1 -2.83211 0.28828 5.8424
233 1 -3.34754 1.98877 -9.25511
1638 1 -2.30152 13.6379 17.7672
1018 1 10.8235 14.678 4.82911
1925 1 -0.895358 15.499 5.14895
1519 1 11.5345 16.3524 19.8724
1756 1 9.88978 13.4784 5.68318
1041 1 -2.3707 -11.9829 5.88763
463 1 13.0771 13.7605 6.14519
1112 1 -0.745444 0.927402 5.71456
1287 1 0.99264 1.202 4.28379
263 1 13.7231 1.5618 6.14224
795 1 16.5217 1.04823 -9.15629
188 1 16.3953 15.6743 5.31416
1363 1 -8.88707 2.14619 4.56175
1377 1 -8.87781 15.1985 18.9827
460 1 6.385 1.62054 6.96275
945 1 19.2059 15.0919 6.29903
942 1 5.86252 1.25321 4.98917
692 1 6.07665 3.87347 4.52924
1240 1 6.48477 3.94098 7.13578
1725 1 19.8565 -11.1329 6.45393
1193 1 7.51924 16.2528 19.0851
1730 1 7.84584 2.55201 18.045
1545 1 8.6462 16.2996 5.37031
743 1 -4.92978 15.4321 6.46531
963 1 -4.19653 15.7993 18.7057
44 1 -3.78436 4.76388 -8.41328
247 1 9.56421 16.1231 6.07248
1942 1 10.274 16.7552 5.6093
1236 1 10.9447 16.1094 5.0633
101 1 10.8211 3.65182 -8.73378
1136 1 12.6306 2.56065 6.01658
235 1 -1.5254 17.3309 -7.29611
608 1 13.5228 14.7598 4.73796
1986 1 0.153789 15.9655 5.32914
602 1 13.9333 3.44654 5.0518
992 1 15.5364 16.4672 18.2976
37 1 1.79355 4.61786 -8.96116
1223 1 2.02078 2.84347 5.64536
1593 1 14.4983 3.62869 20.4195
501 1 0.424091 18.3786 -6.87059
1764 1 -12.0241 18.8453 5.92358
2032 1 17.4096 16.7263 6.64189
719 1 5.19047 17.0163 3.59322
1766 1 5.15095 16.0583 6.60229
1392 1 4.55913 2.82759 18.9637
1849 1 5.47873 3.40047 5.43004
811 1 6.19457 -10.0088 6.16648
821 1 -4.28949 17.2139 5.5643
1645 1 -5.49394 3.52923 5.41569
1824 1 10.5811 3.45649 17.3595
169 1 -4.95882 1.34512 5.23239
721 1 9.05104 18.4796 5.84727
532 1 9.81426 4.76336 6.83457
788 1 12.4439 3.56359 4.49676
1255 1 -1.83794 2.89549 18.8124
1881 1 10.7859 4.18108 19.8482
666 1 0.71401 4.8273 -8.87479
476 1 12.8592 3.46009 5.52375
1973 1 13.5844 4.56446 19.4077
1981 1 13.3145 3.91645 17.7722
1149 1 1.9892 5.90343 5.21944
395 1 15.2774 4.48122 6.89386
1158 1 15.9278 5.37875 7.14979
195 1 -11.0983 6.55379 4.29192
16 1 2.72037 4.74357 5.25196
896 1 1.98322 4.06682 5.6757
1872 1 2.57031 3.54938 4.81167
261 1 3.57112 3.94783 5.09177
1420 1 16.7221 -10.0226 3.80897
756 1 5.37002 20.0179 5.85432
110 1 18.8321 3.63829 -7.23381
750 1 4.78283 4.99109 5.15058
875 1 5.39084 5.42095 6.17996
1457 1 7.63044 18.1718 19.7184
498 1 6.0894 19.3 5.30184
1243 1 7.24673 3.77829 5.21236
104 1 7.96751 5.17399 5.13597
747 1 -5.85585 3.73838 4.18777
764 1 9.49801 19.0292 4.55525
285 1 21.2086 3.48945 -7.37015
1748 1 9.49546 5.87909 5.55274
1476 1 -3.61226 19.7126 6.71239
860 1 11.4839 6.10137 5.29458
1017 1 10.9008 19.8431 6.07295
340 1 9.08262 5.9895 6.64648
1005 1 -16.9025 5.79683 5.13074
551 1 -3.16363 5.10594 6.18834
1084 1 12.4929 4.50167 5.76769
158 1 13.8465 5.82006 7.16372
303 1 -0.069933 5.56498 -8.28987
637 1 0.596396 7.79248 5.95574
1929 1 1.17257 6.86017 5.82532
1569 1 0.460952 6.10065 4.68114
489 1 0.939934 5.85738 6.36479
92 1 15.576 8.85743 -8.47783
848 1 3.41109 5.32983 6.26902
2044 1 3.1365 19.5955 5.40187
686 1 4.43854 6.11735 5.16838
1049 1 6.68136 6.64409 5.10456
700 1 20.172 4.62769 6.02431
1894 1 -7.61569 -6.13219 18.0462
49 1 7.78713 6.31204 6.2985
1838 1 7.11951 5.49932 5.85747
1234 1 5.85502 7.39026 5.80669
1237 1 7.4409 19.1924 6.86915
1171 1 8.4509 6.03662 5.55446
367 1 10.106 7.71275 5.1472
941 1 9.43415 8.45904 4.84046
2038 1 8.55206 17.8682 20.1145
183 1 9.77806 -6.68611 7.13318
1668 1 -2.91758 6.70169 5.09511
1597 1 11.604 -6.76922 5.79654
716 1 -1.57716 20.7461 6.72113
242 1 11.6219 5.19674 -7.41436
282 1 -2.15705 -5.61224 -9.58709
355 1 0.363609 7.38181 4.94066
1370 1 0.848871 -5.18692 5.1185
1484 1 -1.33006 8.55009 3.53555
1943 1 -1.76527 7.98001 19.7432
1465 1 15.3062 8.46418 4.24067
5 1 0.237137 -4.56806 -7.69131
312 1 0.927921 9.30529 4.13431
1555 1 16.568 -5.43528 5.72705
814 1 2.16032 -4.3375 -9.68273
111 1 2.83476 7.90755 -9.01521
499 1 17.9338 6.08154 -7.37016
1800 1 4.41017 -18.2769 18.8926
1157 1 3.89008 9.22818 6.12254
933 1 5.11415 9.34018 3.51447
1738 1 5.27784 8.80819 18.2081
172 1 4.81495 9.95397 5.74223
900 1 6.07933 -4.28399 3.69454
874 1 6.9231 7.71638 5.0542
487 1 -6.8923 9.64 5.56231
1250 1 7.34767 8.5321 20.3687
1817 1 7.51532 -5.02946 5.23223
1630 1 24.2654 8.61208 4.67761
825 1 8.59493 9.66106 5.45991
1495 1 8.49483 22.1708 -8.28505
772 1 -4.54108 9.05219 19.7925
554 1 12.3236 -5.84755 5.12898
927 1 10.0859 8.60714 5.67471
1108 1 13.7264 -4.72286 4.37501
102 1 -2.13272 10.0992 -8.96552
1863 1 13.3106 -5.11703 18.9847
864 1 14.3645 -3.15387 4.31739
846 1 13.6433 -3.99806 5.06114
882 1 16.9007 8.99971 4.80104
337 1 0.396285 24.2108 -10.9174
660 1 1.95163 10.6342 -9.15852
993 1 3.13754 8.69331 3.76149
22 1 3.83569 -3.75702 5.26793
839 1 4.80813 -3.94566 4.606
584 1 5.62608 9.29799 -7.52498
583 1 7.90709 -3.20847 5.63626
544 1 9.03575 -3.15884 -8.61012
1433 1 8.27966 -6.38614 19.3282
1619 1 6.75422 -2.90759 5.1185
918 1 10.8932 10.8126 5.27269
369 1 8.69673 -2.49087 6.15615
1763 1 -0.792707 9.53528 3.61139
1357 1 9.26564 9.91416 6.81156
525 1 -2.49874 -3.06462 6.2936
1238 1 13.0886 11.0183 4.70447
970 1 13.13 -1.43911 5.76462
1609 1 0.401512 -1.94539 4.72077
1747 1 16.1512 11.2557 5.96847
97 1 1.54161 -1.77944 4.03269
1706 1 2.65978 12.9094 4.99789
1328 1 3.38592 10.9103 3.47365
342 1 2.97878 -2.55174 5.00021
729 1 3.46179 12.1674 18.4354
496 1 -10.362 12.0976 20.0653
1274 1 19.0942 11.1763 4.32369
1478 1 5.81195 11.4464 19.0389
1971 1 4.42822 11.2835 3.94332
1979 1 -6.58272 -0.991543 17.3628
1987 1 -7.20156 10.637 17.7779
1155 1 7.6235 -2.68296 4.27507
330 1 10.0202 -1.57485 3.93885
1749 1 8.64635 11.381 5.03913
1259 1 8.2932 10.3961 3.3171
878 1 7.96245 12.2975 5.35096
55 1 9.91999 11.2295 5.78191
2043 1 9.95364 10.5942 4.45072
1424 1 12.1733 12.0692 5.20443
724 1 -2.40778 11.7714 4.73142
1913 1 11.8684 11.0549 18.6513
1699 1 3.14891 26.2162 3.43228
1488 1 1.95246 0.640936 4.0904
1873 1 3.18801 13.1659 19.9163
1278 1 2.66861 11.81 4.06279
542 1 3.75205 -1.91231 2.98621
468 1 4.27369 12.5082 -9.92254
1167 1 -9.88618 -0.157311 4.09985
1602 1 5.16517 13.1844 -7.92882
576 1 4.20745 -0.829268 5.11811
469 1 4.46778 12.3082 6.09666
1341 1 19.5726 12.467 4.78278
1130 1 7.17718 -0.95747 4.8096
65 1 7.85921 12.1632 4.31332
1859 1 -4.6285 -0.838686 19.3031
310 1 10.2659 13.1275 3.59156
1293 1 9.06517 13.5289 3.75541
635 1 23.82 -1.97701 4.85727
1538 1 9.54235 -0.766141 18.419
1829 1 -3.04399 -0.408326 4.88311
1565 1 9.93524 -0.857314 20.3389
774 1 11.8983 -14.4238 18.4545
178 1 12.23 -1.45661 -7.28746
901 1 12.4743 13.0817 -7.90393
239 1 13.8921 13.1408 6.28099
410 1 1.42976 10.9602 5.77341
597 1 13.8642 0.936938 7.53628
175 1 1.62482 -0.606515 5.61964
1591 1 2.02847 0.906622 6.85832
957 1 16.4994 1.37572 7.83041
645 1 2.64895 0.421521 6.0228
209 1 16.6057 13.1949 -5.87194
1510 1 17.5151 15.3123 7.28538
1767 1 4.10832 13.4894 21.3151
1296 1 5.88574 1.01504 21.7937
717 1 6.97416 14.9555 21.3913
648 1 5.75672 0.626314 7.03253
339 1 6.78083 13.4825 5.60238
1483 1 -5.51549 15.0665 20.9869
403 1 7.86614 14.2979 6.74779
625 1 6.99136 12.5812 6.06393
809 1 -6.21068 0.707389 -7.8642
888 1 24.8342 -0.712015 5.99008
273 1 8.59848 0.403496 5.82704
1451 1 11.8878 0.224271 5.3034
610 1 -3.10998 1.27191 6.70765
1915 1 24.6789 3.00351 7.23524
2017 1 -3.14407 16.0921 20.1828
1413 1 -1.36416 15.3594 6.42778
977 1 13.0088 14.6909 6.75781
1322 1 -1.79012 14.2024 6.36205
1365 1 13.296 2.02449 7.00679
654 1 1.45651 29.478 -8.33676
139 1 14.5084 16.6026 -7.78215
1026 1 -10.4819 0.570536 7.29984
1777 1 16.6919 14.9979 20.1721
990 1 16.9451 14.7794 -8.22587
1280 1 3.57155 14.7744 8.44596
197 1 -9.71586 15.7309 -5.40279
1515 1 4.46094 15.1671 6.3413
1557 1 5.29025 -12.2081 7.29878
2023 1 5.17011 15.976 8.22171
121 1 4.35592 2.77785 -6.11959
1691 1 6.08825 2.48519 7.64771
1463 1 21.0668 15.2605 6.5503
138 1 9.53907 1.75363 -5.41207
2001 1 -3.14637 1.99669 7.55653
1125 1 -1.84721 3.79611 21.0172
151 1 11.5453 15.2487 -6.6839
1347 1 -3.8293 3.58494 6.48206
871 1 -1.86138 16.9626 8.39667
1554 1 12.1549 2.47858 7.24458
180 1 -0.0158858 2.04616 -5.62856
1453 1 -0.0663745 2.67193 6.27234
497 1 -0.419365 16.6963 7.16701
478 1 14.6616 15.6691 6.25086
254 1 13.2666 5.69905 -7.3643
1579 1 14.9716 3.79614 7.7638
1773 1 3.61439 2.08265 6.19314
184 1 15.9732 16.7982 7.76737
1653 1 1.95296 1.91459 7.4115
652 1 4.05861 3.10621 -9.3378
2012 1 16.0363 2.42207 6.60778