ITEM: TIMESTEP
75000
ITEM: NUMBER OF ATOMS
2048
ITEM: BOX BOUNDS pp pp pp
0.0000000000000000e+00 1.3679807573413575e+01
0.0000000000000000e+00 1.3679807573413575e+01
0.0000000000000000e+00 1.3679807573413575e+01
ITEM: ATOMS id type xu yu zu
1394 1 2.02028 -1.81647 13.4378
394 1 1.5183 14.3915 1.23172
1528 1 -0.935948 14.2289 14.7997
456 1 0.380818 13.8558 1.23353
1396 1 3.07668 14.8667 13.7337
1135 1 3.04481 1.94465 14.697
1098 1 0.686796 14.4342 -0.243535
1333 1 17.2287 -10.4797 12.7519
326 1 -10.59 0.132418 -0.234597
1487 1 5.04365 12.9227 14.5573
1001 1 4.56235 14.6264 1.54932
640 1 20.4117 -13.2014 15.0185
458 1 -6.62898 15.1436 0.943844
1983 1 8.54169 2.20228 1.87467
2037 1 8.85604 16.1198 14.1212
1645 1 -6.15675 1.99453 2.00321
964 1 -4.55604 15.103 1.41432
1912 1 10.0885 1.72283 12.6682
1745 1 -3.56702 0.672078 15.6945
220 1 9.74548 15.587 0.742116
1147 1 -3.17874 14.6367 14.5446
1105 1 12.8018 1.54175 1.05679
928 1 -1.63999 1.17572 14.1173
1454 1 11.6995 15.4984 14.734
1930 1 1.77815 3.53956 15.1525
1064 1 1.40509 4.55547 1.12947
914 1 1.15483 -11.7673 0.192896
505 1 15.3819 1.79737 14.9293
1401 1 15.8271 2.89016 14.0036
2045 1 17.4949 15.5453 2.75531
870 1 -13.536 4.63842 12.7985
799 1 5.22262 2.9473 0.943401
631 1 4.38652 16.1618 -0.0314443
225 1 -11.3332 2.71144 1.2631
1032 1 -11.6814 3.90678 0.362062
1115 1 5.84442 1.50242 12.7892
1641 1 6.77784 2.57088 15.2299
1888 1 5.61189 2.1408 13.7859
1534 1 5.92884 15.2174 1.14636
806 1 -5.33756 3.18528 1.54232
948 1 7.92025 15.9944 14.6895
1965 1 8.81261 17.2079 14.2606
1221 1 8.09842 17.9828 1.56971
385 1 -4.37749 16.4808 1.47428
1191 1 9.44737 15.8237 13.3337
1958 1 -2.84752 3.19982 14.0407
918 1 9.81579 16.6741 0.120781
1122 1 10.5526 2.27813 13.3493
1613 1 11.5339 16.5993 14.8692
179 1 14.1217 17.1401 0.815645
805 1 12.3924 2.39175 0.445973
602 1 14.1028 4.55153 0.742122
348 1 -0.10886 5.42795 1.79584
1631 1 12.1205 6.12714 -0.606875
1103 1 15.2127 5.70047 1.0638
495 1 15.2338 3.48494 -0.819086
761 1 15.9629 18.1732 -0.396523
1892 1 0.819169 3.95598 27.3183
703 1 16.4073 -10.0317 0.985269
756 1 4.47629 16.6201 1.78119
1412 1 5.796 4.0724 13.8856
1202 1 19.8926 17.2336 15.3399
854 1 6.85876 3.97561 0.529617
845 1 7.59266 18.5966 0.78912
328 1 -4.44502 3.95946 13.3893
766 1 8.93763 18.9854 -0.554413
1063 1 13.0524 4.30848 1.18986
1053 1 12.7288 -10.5427 -0.224705
221 1 12.301 17.1846 1.59101
589 1 11.403 18.9995 1.41527
699 1 10.9429 4.57729 0.188444
1735 1 -0.228985 4.2453 13.7187
86 1 27.5979 -8.77535 2.98263
1360 1 -0.361972 -6.45563 0.658802
733 1 12.5365 18.8313 1.47477
1665 1 -0.247547 7.60433 2.06991
551 1 0.747794 7.85364 1.56916
603 1 14.6972 6.607 0.71845
882 1 16.9043 5.97058 2.69669
411 1 15.1256 5.85617 0.00200093
1438 1 16.7895 17.8303 0.126374
1282 1 3.46562 -8.93252 1.01108
1742 1 4.53289 18.6883 14.5471
500 1 5.65071 5.01313 -12.9083
466 1 6.22323 6.09342 0.356926
77 1 4.2188 3.10578 0.774173
50 1 6.60317 4.907 0.29352
891 1 20.9883 18.9743 15.4824
1212 1 5.00487 5.02703 13.5461
1522 1 8.42612 18.402 0.305553
2047 1 7.9598 20.2428 13.3555
226 1 -6.67188 19.1157 -0.864376
1313 1 -4.74627 20.3553 1.20828
824 1 10.8163 5.59361 0.632242
1035 1 -4.10531 5.15992 0.441151
352 1 25.1593 5.1526 -0.788931
561 1 12.228 4.74119 -2.44101
2041 1 12.0953 6.01829 14.0625
144 1 -1.28047 4.17206 0.36821
1737 1 -2.70524 6.42433 15.0988
1597 1 12.5163 -6.72304 -0.0285763
554 1 15.2746 -6.31196 1.04551
620 1 14.4366 7.81698 14.1387
651 1 2.21108 6.55758 1.46849
898 1 3.02968 5.06854 15.7029
222 1 4.81488 6.25054 -0.491999
662 1 4.02309 19.484 14.9581
438 1 16.93 6.94843 0.844241
445 1 17.9101 6.84127 0.355863
936 1 4.42613 5.35887 -0.921036
1507 1 -7.4042 21.4774 14.1591
1307 1 3.78006 5.44826 13.8951
1577 1 -8.15245 -7.82211 15.2339
1659 1 6.61423 5.96419 1.32373
1274 1 18.9052 4.52061 -1.11984
153 1 6.17263 7.10634 -11.4218
1422 1 -4.88437 7.57479 13.04
794 1 8.85148 -6.79316 13.9014
558 1 10.4527 20.382 2.37967
383 1 9.75416 7.13292 13.5161
1820 1 -2.88251 -5.96754 13.8176
1065 1 -2.61191 8.2008 1.30606
789 1 11.7972 -6.52424 14.3988
432 1 -0.56075 22.6102 1.69227
560 1 -0.166285 8.02629 13.7049
1831 1 15.6156 -5.92339 13.4411
1722 1 27.6441 9.68001 2.63746
1902 1 13.7844 8.98322 13.2678
1368 1 16.9438 6.37652 13.7274
1974 1 15.9319 6.45849 13.9578
1799 1 3.27779 -4.91822 13.7156
698 1 30.5573 21.1713 -0.137287
933 1 3.20908 8.39591 1.29128
1910 1 19.504 8.81485 13.9429
1687 1 5.25545 7.48922 27.9304
1038 1 5.69599 -5.62098 -1.48102
108 1 4.88152 8.72695 14.31
96 1 20.3626 9.34022 0.189668
1502 1 20.2369 20.1624 13.1476
1143 1 8.22836 9.02266 0.539104
1916 1 9.34931 -6.31967 12.2204
1408 1 7.13214 7.24166 14.2738
429 1 6.0642 6.93137 1.26391
313 1 20.629 8.32062 1.42593
1984 1 10.0089 -6.57543 14.8308
451 1 -2.23117 -5.16506 0.465027
277 1 10.4412 8.68608 13.6543
709 1 -2.43101 9.77686 1.51506
289 1 12.6037 7.94822 -13.1155
672 1 13.4247 9.67597 14.3444
152 1 1.1745 8.78035 -0.275974
548 1 -13.9006 11.0907 1.02544
1405 1 13.4151 11.1508 -1.00019
1430 1 15.8589 22.7165 0.0910074
1146 1 2.78956 22.8778 12.928
1988 1 2.46032 9.06841 14.7635
95 1 1.87565 23.6537 -0.552071
1698 1 -9.49571 7.88299 13.9895
1854 1 31.0016 -17.6027 0.972985
735 1 3.88569 10.3429 1.84389
1448 1 18.713 -2.94246 13.2762
1137 1 4.62682 23.6845 14.2598
1610 1 7.29503 11.0341 13.9456
1680 1 -6.7016 11.952 13.6854
1959 1 -5.4407 23.7798 1.42423
521 1 7.6585 -3.71363 0.553165
1477 1 8.722 9.82986 13.8385
1169 1 6.76494 10.7797 2.30939
1856 1 8.52031 8.03877 14.0077
362 1 8.8974 -4.89269 -0.271757
1921 1 -3.05007 8.99939 14.6783
1439 1 23.5728 9.93786 14.7081
1433 1 11.4715 -4.36516 16.4397
1345 1 -2.05297 -3.20413 14.1701
739 1 -1.30817 24.7433 1.39225
40 1 -0.390862 10.246 1.70135
1273 1 -1.48367 9.94942 2.05199
1002 1 12.5412 23.7883 14.7254
2 1 0.964799 11.7142 -0.536139
214 1 14.0665 10.6137 -0.377917
1444 1 1.60096 24.6509 13.2633
787 1 0.929858 -4.01328 0.108044
584 1 1.20493 11.2089 -12.8265
471 1 2.74245 11.842 -10.6452
1670 1 2.95083 9.83415 13.8898
537 1 16.3144 -3.55587 14.8456
157 1 17.9908 11.1069 1.04875
1383 1 4.80608 10.945 29.4419
1279 1 4.57871 25.6938 1.9825
161 1 6.90113 9.62057 1.15939
1075 1 5.38451 24.4137 0.778883
160 1 22.0258 11.6843 0.0215997
1175 1 6.52308 10.8035 1.2686
1179 1 8.43279 -2.55457 -12.0158
518 1 7.13266 -1.91048 1.2627
1052 1 9.57368 10.8994 0.763296
1624 1 10.6433 -3.68575 13.9764
877 1 9.09754 12.8592 -0.111071
1244 1 10.474 12.1936 0.995729
536 1 -0.582364 12.1255 1.27568
1176 1 9.89748 -2.24022 15.3302
1469 1 12.4619 11.9409 0.327213
1692 1 11.5595 11.5948 14.624
929 1 0.52274 -1.93375 1.40968
1808 1 13.0757 -0.661033 0.727134
1865 1 15.3874 12.5752 14.2168
386 1 -11.7785 -1.05542 2.99046
859 1 15.9575 -1.45204 15.479
1181 1 2.04172 14.5586 13.5968
490 1 3.91809 13.0886 -13.2838
241 1 3.33032 10.9942 0.934792
1340 1 4.21682 12.3328 28.4204
1492 1 19.1673 -1.28581 15.4482
281 1 4.44797 0.595508 0.51598
1857 1 6.15199 -2.31555 14.0279
1947 1 7.28448 -0.258836 15.6063
515 1 -5.11066 -1.9896 16.1906
1406 1 22.9487 12.1228 1.07923
715 1 8.22211 14.7835 2.49125
844 1 -3.71392 -1.02773 13.9952
1563 1 23.1234 -14.2289 0.945325
1239 1 23.2676 12.2851 16.0681
510 1 10.827 13.3707 0.618317
572 1 -1.72316 -0.73893 -0.248747
398 1 -2.13032 14.0093 0.97514
1411 1 -1.94608 -1.00422 14.4214
880 1 14.3194 15.0254 1.01878
1883 1 15.6772 13.4351 15.6941
1700 1 2.96906 0.0889117 29.6569
1482 1 3.67278 1.03794 1.09975
1556 1 15.6585 1.39756 16.848
1435 1 2.65296 14.023 0.77855
1503 1 30.1505 15.5678 15.7035
1875 1 17.4268 0.980004 2.28872
1109 1 4.04286 -0.125137 2.73343
988 1 6.34364 14.8146 2.01153
1102 1 4.85742 0.38307 16.1028
712 1 6.64955 14.6802 3.393
316 1 21.7904 1.88261 -10.366
842 1 8.18816 3.04739 -10.4298
359 1 9.02189 0.189721 3.52793
1021 1 9.595 13.3595 2.02575
126 1 23.7517 1.82911 1.74855
227 1 -3.20667 15.0733 16.3118
125 1 13.4772 3.05708 -11.6622
1733 1 -1.73345 14.4596 3.82646
1242 1 11.5698 1.23694 16.5833
33 1 -0.0389636 0.998087 1.91871
1859 1 -2.3969 1.19779 15.4378
1000 1 -0.0343928 15.8561 15.1881
1466 1 14.5408 1.62603 15.6712
1355 1 1.24293 2.70734 14.6655
347 1 12.5831 16.077 15.2452
1998 1 -1.73952 2.33524 16.0937
868 1 -10.7185 1.11231 16.5563
785 1 16.8598 -10.9566 2.76206
434 1 2.38378 0.797343 15.4486
1976 1 16.1124 1.65327 17.9479
746 1 -8.26285 13.923 1.41244
1759 1 19.8626 -1.21739 3.42073
1790 1 4.70084 14.4552 17.7691
1541 1 6.3164 -0.111228 3.7392
1855 1 19.2804 2.70417 15.5166
601 1 6.39741 2.00724 2.47599
1327 1 5.74911 0.819562 2.89263
181 1 8.95547 17.0148 2.37396
702 1 19.9863 30.4776 2.5853
93 1 22.8434 17.7254 1.54895
1012 1 9.91434 16.5056 2.47256
1030 1 10.3566 2.7584 1.35999
380 1 10.9856 2.31579 2.04899
301 1 12.8593 16.2809 16.4404
80 1 -0.567019 16.7928 0.97486
1615 1 -0.784775 4.09557 15.9419
1136 1 11.5493 1.79505 3.92074
1350 1 -13.2497 2.92447 16.8462
976 1 0.559157 3.93549 1.83415
1782 1 2.19737 19.37 15.9898
1603 1 3.27774 1.04715 18.2694
2020 1 0.277158 20.3878 15.2722
1904 1 1.83406 15.7154 15.9169
210 1 18.8488 15.1835 -11.4038
1377 1 -9.63897 17.6174 15.3643
617 1 3.48861 2.94074 1.53585
1764 1 -11.3155 16.1442 3.49668
759 1 5.36519 4.87004 15.4331
926 1 18.8685 17.672 1.15665
1508 1 5.87134 5.19626 2.55608
1652 1 -6.99565 4.65139 1.29633
294 1 -7.85181 5.67507 17.2154
791 1 7.27798 3.52589 15.2512
851 1 9.39538 5.9919 1.93397
1113 1 8.48043 18.8805 15.1262
1810 1 8.14825 4.0828 16.9826
198 1 -17.5905 18.5651 1.81718
1390 1 23.7547 3.95826 14.1479
1599 1 11.7882 4.45555 15.5536
1089 1 -1.22414 4.59071 16.6557
336 1 10.9892 17.5901 14.9923
1568 1 13.3405 3.7449 16.9409
633 1 12.7859 19.3153 2.41818
1623 1 14.2563 -7.53798 16.0762
263 1 14.9537 6.70359 1.8887
520 1 3.06228 -7.06914 3.38292
1051 1 29.7383 4.90096 14.3516
142 1 2.281 4.56607 1.5718
1294 1 -9.25966 5.98404 2.30806
1266 1 5.37273 4.54502 3.35439
1110 1 22.0622 6.29531 15.7274
1373 1 6.87745 -7.36832 17.2617
444 1 -6.35053 5.73795 0.141372
1814 1 7.92924 6.19939 14.7212
1352 1 -4.93647 5.5256 2.60625
113 1 10.4369 5.58826 15.8318
379 1 -3.30551 6.03308 3.18809
110 1 22.4133 4.48014 -11.1871
1255 1 -4.37242 6.27455 16.7385
604 1 11.3768 7.30036 15.5551
176 1 -2.14366 18.9628 2.56422
303 1 -2.13766 6.3316 -10.9239
2011 1 13.0547 19.9254 14.6147
1647 1 12.9007 6.74759 2.40971
473 1 11.9611 6.07228 -11.9313
1978 1 13.4207 -5.56407 1.10372
1632 1 14.093 -4.85159 1.76299
431 1 0.827366 7.93173 -0.797964
1607 1 2.56091 7.79377 28.0224
1861 1 2.43167 6.70806 16.1801
1077 1 16.4358 -6.27514 1.83163
1025 1 1.82403 7.56514 2.58368
344 1 16.7441 -8.97135 2.96913
1929 1 4.02611 5.01903 1.968
1997 1 3.46764 6.4908 15.4761
1547 1 5.58076 -6.8955 13.6033
1359 1 5.25473 5.90255 14.2557
972 1 -9.0146 20.3428 15.1469
813 1 -8.21101 7.60287 2.96693
921 1 6.66951 6.1143 2.5234
775 1 5.21258 7.67516 15.3615
31 1 5.41272 6.26514 2.5485
679 1 7.18995 7.62707 2.32976
958 1 9.47728 6.88678 2.18064
920 1 8.32889 7.52327 1.50272
546 1 -6.3517 6.73067 1.90853
1215 1 21.7338 6.62316 3.1053
1907 1 10.721 21.0304 3.11969
1530 1 9.60458 21.2187 3.23502
367 1 9.74038 5.17317 2.78874
1311 1 10.6452 -4.61643 15.7482
1413 1 -3.43782 21.4336 2.32058
1484 1 -2.13795 7.00666 3.90831
1480 1 -3.79048 19.3609 17.8034
1414 1 -1.3794 20.7202 1.58256
413 1 12.9042 7.63239 2.95376
1771 1 12.0039 21.2303 2.66779
423 1 1.43244 8.77016 0.775417
1258 1 -14.7014 8.50835 2.51854
1803 1 1.14963 -5.32678 2.46495
1295 1 15.6512 -5.36973 15.3769
483 1 3.81176 8.18811 2.38908
82 1 4.52161 -6.6524 2.51084
345 1 17.6732 7.50416 1.33459
1752 1 4.89233 -5.30452 15.9847
1320 1 5.86944 8.72116 1.2197
910 1 5.89305 6.72671 -10.3366
1440 1 18.0735 9.27361 2.38736
280 1 5.974 8.62635 2.55396
1996 1 8.7561 22.4041 15.0288
1727 1 8.04777 8.15703 2.17976
1409 1 -4.43041 8.33553 2.1983
1497 1 9.17808 22.7462 3.01403
788 1 10.0804 7.04224 3.98693
519 1 -3.71355 -5.43396 1.36616
1543 1 -1.16361 -5.68896 1.62092
465 1 9.59021 22.8041 0.508011
2036 1 -1.91005 8.79859 15.5452
320 1 -0.939507 8.9573 -0.316506
1207 1 12.0741 8.89515 17.1829
1572 1 -12.7416 -3.99908 14.9899
588 1 0.548555 9.83986 17.4325
1837 1 1.7235 -4.64703 16.8438
2026 1 1.7753 -4.39878 15.6787
729 1 2.98871 10.8047 17.4695
720 1 3.35803 10.0852 2.74404
1738 1 2.96718 9.38143 15.5329
1205 1 4.23951 9.00839 15.1495
1341 1 18.9362 9.3412 1.79154
684 1 7.69029 22.807 1.4475
952 1 7.00152 10.039 -10.3352
185 1 8.39116 9.3097 2.40433
1817 1 7.70152 -4.6866 3.35416
954 1 7.39023 9.86772 2.1574
351 1 9.68167 -4.53333 1.73837
874 1 10.0392 8.5817 2.789
832 1 11.7305 10.1341 3.45597
1882 1 24.6805 9.33288 17.711
1648 1 12.5667 9.16105 17.995
337 1 -0.841163 23.2972 -10.9411
524 1 2.13928 -2.40389 1.43636
1590 1 1.13669 -1.32674 2.37195
1455 1 0.611071 10.4648 0.725818
1911 1 15.5335 9.91043 14.3076
54 1 15.4412 11.5321 -10.3415
694 1 0.63544 10.7596 1.73733
841 1 -10.5599 11.5052 1.88637
1755 1 3.53626 25.9697 3.69523
322 1 3.4717 -0.96662 1.90734
1633 1 7.03497 -1.98169 16.3985
1095 1 5.73682 11.3315 15.5352
391 1 7.22435 -4.95223 2.48258
932 1 -4.4241 10.7233 1.95682
942 1 7.78483 -2.78375 2.49107
822 1 -3.15865 10.7776 1.32206
1042 1 -3.57639 -3.6553 2.01752
1424 1 13.2657 11.3245 1.98156
566 1 11.8655 -1.95542 2.11275
1804 1 -2.18699 -2.91735 15.6027
103 1 -13.8055 -3.15328 -11.0375
1055 1 13.8293 -1.26745 2.32874
122 1 12.8618 10.6036 3.46743
1114 1 -0.661109 -1.97008 3.09984
803 1 1.3777 0.166429 0.237332
1850 1 13.1871 -0.0598779 15.5972
1542 1 0.704594 -0.335981 2.2476
1948 1 14.7178 13.2791 30.6846
156 1 13.323 13.3771 3.27425
1385 1 2.76055 -0.760444 0.996468
218 1 1.60105 11.2254 2.31972
1097 1 2.08679 13.9426 16.72
1684 1 2.65014 -1.7961 14.3453
123 1 17.5718 -0.0706394 1.4926
853 1 16.721 -0.800024 2.79231
506 1 5.14727 12.8673 2.94967
1548 1 4.72425 -14.2503 15.7464
487 1 -9.49054 12.3788 2.88723
482 1 3.79547 13.6114 4.65622
1704 1 6.53466 -1.00937 15.8495
1768 1 -4.98832 10.4764 18.3191
1898 1 6.34154 13.2164 1.30677
1511 1 8.16963 25.6138 1.28326
2043 1 9.35378 14.5291 2.59992
1651 1 8.71143 -1.0548 15.618
737 1 -4.21309 13.1051 16.711
1128 1 8.78183 0.192147 15.2369
965 1 -2.9764 13.2379 1.64088
1638 1 -2.4171 14.0921 16.1482
888 1 25.4592 -0.405732 1.70802
763 1 12.1856 14.5727 1.88037
268 1 12.3717 -1.23533 2.87911
392 1 0.374482 14.1233 3.73315
753 1 1.46737 14.2723 4.00207
1754 1 14.9108 14.2228 2.73967
2022 1 14.22 15.1011 17.0499
1946 1 29.3652 14.4954 4.84353
1550 1 2.56906 0.668582 3.94919
1277 1 16.8498 12.7398 18.8845
940 1 -9.39459 1.0135 4.99358
1427 1 2.61872 0.0331573 5.20873
1767 1 5.10944 13.7911 17.0609
59 1 5.53506 11.3513 -9.96339
1905 1 18.5364 -0.109977 4.57645
1712 1 5.09518 12.5211 5.18692
674 1 6.29861 15.2729 4.21
1873 1 7.3761 13.4939 18.8032
767 1 7.76368 13.4142 4.05792
293 1 -5.8904 0.762113 3.52986
417 1 -6.28413 15.4996 3.96517
1357 1 9.10479 16.2779 5.3711
255 1 10.1112 0.200948 3.19818
330 1 9.85547 0.2763 4.37286
1475 1 -4.50818 15.6703 2.74503
102 1 -3.02195 14.691 -10.0416
657 1 -3.20021 15.9068 3.19887
204 1 -2.39431 16.1836 4.72022
608 1 11.3044 14.9432 4.81126
864 1 13.0221 0.260325 4.98361
636 1 13.4198 14.3564 2.84107
148 1 -1.24165 15.6455 4.59682
931 1 0.0130314 15.7375 2.64818
1925 1 3.32648 15.4047 3.71234
638 1 29.3996 3.07862 2.50794
644 1 2.24024 1.83437 19.1219
437 1 4.51144 1.28243 5.98932
1939 1 3.73631 0.798742 17.164
593 1 4.55036 2.52566 2.73665
1766 1 3.00315 16.0556 4.62096
1500 1 5.50404 2.24987 16.8918
1329 1 5.71024 0.680138 17.7401
1591 1 4.61157 1.51314 3.37877
1858 1 5.83879 -0.334936 18.4884
1977 1 6.62492 16.0691 30.9236
945 1 20.9784 16.2747 2.81132
105 1 7.47523 2.75357 4.28221
36 1 8.00707 3.72388 4.28007
324 1 -5.06651 14.9182 -9.56806
1525 1 9.55584 16.5507 17.1426
1932 1 10.3061 3.70198 15.6951
509 1 11.5355 16.3165 3.32298
1567 1 26.468 1.54334 2.37545
135 1 -15.1034 17.1118 16.3118
310 1 14.7675 15.8646 3.05284
1778 1 15.1131 17.3857 4.45139
808 1 0.970729 4.93238 2.13477
182 1 15.5916 2.80959 -8.98765
171 1 1.34901 16.889 3.41503
893 1 16.6709 -9.15213 4.19136
287 1 16.6659 3.69909 2.15224
1029 1 3.78905 -9.8987 16.3972
259 1 -9.26273 2.83854 -7.76128
1772 1 5.17633 3.62606 2.15077
261 1 4.01462 2.01577 5.16361
796 1 4.641 -9.14195 2.62345
371 1 -5.84344 5.37223 4.07163
1841 1 6.76976 4.03657 2.41519
852 1 -7.67754 3.76177 3.44714
498 1 8.79631 18.629 3.64078
1749 1 7.86358 17.3218 2.36863
1920 1 22.9322 4.06655 17.4801
341 1 -2.81588 4.45082 -11.4499
653 1 -3.75705 4.11965 2.90279
1982 1 9.81039 3.77693 18.7656
547 1 -2.28199 4.16931 3.28031
779 1 12.3544 3.98222 -9.83782
245 1 11.3536 17.0954 2.18119
1512 1 0.985821 2.88628 15.701
774 1 11.6478 -8.71648 17.6384
1116 1 0.507546 4.11686 4.54025
2013 1 15.2432 19.3478 4.12914
37 1 1.07563 4.19383 -10.477
41 1 0.0503968 -6.88282 3.02815
939 1 1.28078 20.5045 3.19292
645 1 1.44107 -8.38303 3.02345
1319 1 2.01798 -9.21711 2.69151
528 1 3.30134 5.9079 5.39597
284 1 17.7156 -7.26668 3.12685
1933 1 4.67902 5.41084 16.9676
1838 1 4.99737 6.33029 3.68588
1158 1 19.5673 7.26997 5.14762
115 1 5.07941 6.63549 5.29204
612 1 7.40131 6.22469 4.49338
1457 1 6.46209 18.4027 16.96
1263 1 4.37121 6.45502 4.48914
707 1 7.66656 18.3833 2.57519
1118 1 9.26638 5.43886 4.95669
1833 1 11.3276 19.671 17.4791
1397 1 12.3953 5.77355 17.8635
97 1 -2.99001 5.01472 3.17079
1197 1 13.0368 19.1003 17.0867
1451 1 12.0349 3.27474 4.91179
1488 1 -0.202719 5.53748 4.42417
1815 1 12.3975 6.55471 17.1015
1346 1 1.40395 -5.59077 3.3768
670 1 13.8268 6.71597 -8.61207
1781 1 13.8457 21.5099 4.82677
1689 1 16.0391 6.54875 18.0798
751 1 17.218 7.25292 2.7354
408 1 27.8174 7.617 -10.0455
14 1 3.67523 -5.64361 4.59908
2040 1 4.49788 7.47127 17.3017
1031 1 -8.175 -6.01109 4.02339
1495 1 4.54986 22.8338 -7.53116
1460 1 19.1388 8.24489 18.6509
1234 1 4.66134 8.31457 4.2131
820 1 7.31018 7.30206 17.0425
1853 1 6.72007 7.27217 17.9496
109 1 19.4728 -7.22203 4.36739
605 1 7.65423 5.71354 2.71596
61 1 8.53341 6.10451 3.88653
332 1 9.1994 6.72434 4.49574
1343 1 8.08818 8.0127 3.27829
1366 1 9.69607 8.42726 5.64856
159 1 10.9231 20.3903 5.58318
349 1 25.2278 5.89377 5.23667
244 1 -1.20575 7.34298 4.26723
1365 1 14.3606 5.91987 3.39592
1545 1 11.9366 20.6473 5.01912
1289 1 1.07238 -5.21534 4.51468
92 1 13.7351 8.40484 -10.9457
452 1 14.4449 22.5567 3.4136
1453 1 0.757563 7.38673 2.47537
925 1 16.3515 8.37651 -11.0882
790 1 2.04182 9.06739 -9.56928
128 1 16.5062 9.28499 3.15503
1342 1 17.3848 -4.64736 17.2932
425 1 2.57881 7.6025 -10.0919
22 1 3.51567 -5.65881 3.4582
1378 1 5.64483 -4.84866 20.3193
98 1 -7.82563 -3.5257 3.9117
1251 1 -8.27325 9.04488 17.7206
27 1 6.37345 -5.4346 -9.37851
23 1 7.18487 9.45184 -8.21404
1398 1 6.36503 7.70458 16.9541
1040 1 9.47941 -4.98106 4.20578
2002 1 -6.15837 8.76264 18.0917
596 1 -4.78642 7.81796 4.01039
583 1 8.74894 -5.19327 4.87784
1894 1 -3.86603 -5.98697 18.4323
75 1 -2.9557 10.2005 2.84728
734 1 10.5081 6.39515 4.75312
860 1 11.1851 8.26245 2.77638
1928 1 -2.84529 7.42704 4.59476
807 1 13.3823 6.63164 17.7011
1891 1 -2.12681 9.99534 4.6136
1276 1 -0.603748 -5.42978 -9.71584
309 1 15.21 -3.6918 3.58794
1479 1 0.520256 24.0574 5.06224
1889 1 2.63328 24.3568 15.7973
1828 1 2.28438 10.4118 2.92759
580 1 4.54153 9.66734 3.62092
111 1 4.42735 9.47878 -8.89716
334 1 4.24291 10.6053 3.18035
1868 1 3.73581 -2.18693 2.99678
1259 1 5.12206 10.203 2.63592
272 1 -7.08969 -2.15373 3.70648
1157 1 4.5198 8.53836 3.14363
172 1 4.84415 10.7804 4.20381
1971 1 6.21575 9.74224 2.32647
1571 1 5.98857 -2.93188 16.7153
1410 1 8.61003 9.12312 4.04947
1666 1 -4.30663 23.4985 17.8595
1494 1 7.62235 9.83082 17.9296
917 1 8.45499 -3.80891 3.27156
975 1 11.5325 8.04521 17.8499
424 1 -3.18474 8.21226 3.80953
998 1 -3.95192 10.0345 2.96896
1303 1 24.2395 11.1332 3.49292
523 1 9.83963 10.4368 18.5736
1951 1 12.352 10.8898 16.2151
1995 1 -0.401415 9.2208 3.59135
1271 1 13.3722 9.8358 18.2655
149 1 -1.14527 10.4981 -9.08767
770 1 1.26727 -3.35723 16.2982
714 1 0.57706 11.3875 16.2629
24 1 1.67549 -3.36689 1.54486
1033 1 1.75352 9.88986 4.783
1275 1 1.99048 10.9638 18.1763
1203 1 5.92035 11.7376 2.76805
1619 1 4.88866 -2.08665 2.88638
606 1 17.67 11.3411 4.26887
397 1 5.72064 -3.34386 1.72508
1987 1 -9.13803 11.6013 18.8174
342 1 4.69088 -1.55018 3.89095
1945 1 19.7412 -2.23211 5.51667
1253 1 7.03315 13.3152 3.00799
1627 1 7.61324 -3.25773 5.1263
196 1 -19.6146 11.3649 -10.0182
1436 1 7.46125 12.383 17.0988
2039 1 8.76037 11.751 17.5591
816 1 8.6563 -2.78824 3.11935
526 1 -3.66545 -2.55682 2.6322
1374 1 -4.17806 -2.58546 3.90789
368 1 11.2837 11.8425 4.54285
1961 1 9.75375 -1.50654 18.2189
544 1 10.7355 -1.71333 -11.7369
1039 1 11.5508 -2.70831 17.6757
1753 1 9.72072 11.9881 3.49916
1915 1 26.091 -0.578133 5.47027
400 1 -0.137279 11.0441 4.38734
829 1 10.6301 10.3491 4.0701
1760 1 12.5346 11.4132 17.72
1216 1 -1.7678 -1.23999 3.80086
321 1 0.46327 -1.31588 3.39298
982 1 2.99308 13.3716 3.98479
966 1 1.30205 12.4945 3.93591
468 1 2.51205 12.449 -9.64712
177 1 1.94953 -0.391207 4.06421
1214 1 17.7869 27.0225 17.379
1566 1 6.80768 -1.12298 17.9226
1048 1 4.07384 -1.11274 4.68853
1458 1 6.09574 13.7069 16.0742
895 1 22.1729 -0.0417755 2.66511
713 1 7.64062 26.0397 -11.4972
1901 1 10.1489 13.0852 17.6815
56 1 8.39462 12.5412 3.13727
556 1 9.1571 -0.682318 4.27782
1300 1 11.1303 -0.0588198 3.48955
1538 1 10.4487 -0.710059 16.4325
534 1 -2.80059 -1.2477 3.66547
1588 1 -0.986842 -12.0561 3.48432
271 1 -1.95219 -2.08274 -10.4154
299 1 12.1885 13.9548 -10.7863
390 1 0.604486 10.9417 3.65598
1017 1 11.3984 26.5721 2.62461
2014 1 12.9402 12.6407 17.6313
1287 1 2.11918 -0.0305324 6.13702
1743 1 1.88912 14.6676 6.78594
1380 1 2.6425 0.924397 5.86698
899 1 -9.41686 13.245 32.8799
1706 1 3.21472 13.335 6.08871
1196 1 1.58081 12.9043 5.82396
1786 1 18.4987 14.0347 19.5608
1420 1 20.4522 -13.0016 5.32962
1049 1 7.82822 0.0716817 6.05625
1691 1 6.06538 1.41945 5.25256
1849 1 7.0374 0.563599 4.30622
924 1 7.98193 -1.45565 7.35499
911 1 9.6224 1.33701 17.3312
1586 1 -4.12472 2.34415 18.1456
1650 1 10.3337 13.0085 5.21428
836 1 12.4495 14.7993 6.94062
1969 1 12.9677 0.44887 17.617
488 1 -0.301526 13.17 6.12344
963 1 0.025053 14.7949 19.1409
1284 1 1.07064 -12.2906 5.31523
830 1 13.5553 2.28532 3.82025
646 1 -0.438269 1.21073 18.3021
783 1 0.00734532 -8.82302 -8.48159
184 1 15.079 15.4707 4.02546
749 1 1.38628 2.42594 5.7595
540 1 2.50022 3.24944 5.46867
230 1 3.55238 1.89342 6.24138
795 1 16.2401 3.51889 -9.42934
579 1 17.2519 0.48654 5.46872
1777 1 17.059 16.8708 19.7323
29 1 18.9812 2.16689 5.50421
1515 1 4.13953 15.9758 4.05033
462 1 5.17283 15.5869 4.30755
719 1 6.5245 16.4021 5.70498
20 1 6.10515 2.49353 4.75789
1762 1 -6.45002 17.4599 -8.68853
2033 1 7.7719 14.6477 5.29543
1757 1 8.56392 2.39344 4.2419
143 1 8.65015 1.73687 5.27247
1960 1 -3.28743 16.5828 4.16971
743 1 -2.87204 17.1602 4.94437
1388 1 -2.75438 0.310414 4.46224
2029 1 13.3086 3.20001 4.73894
1979 1 -0.9856 2.86066 17.5851
1823 1 10.7161 16.9657 16.83
1769 1 11.4903 30.8047 17.6403
821 1 -0.541002 15.7129 5.41254
1293 1 14.3516 16.5616 4.14489
997 1 12.9363 30.4311 5.85065
233 1 0.171941 2.43447 -7.67043
1112 1 0.522655 4.81678 3.85285
2032 1 17.5256 17.0197 3.72963
195 1 -12.4338 4.83321 4.56218
652 1 2.09563 4.24546 -10.0065
1880 1 4.13137 4.51398 3.59733
116 1 4.40797 17.4772 5.43489
1949 1 19.4443 4.81095 4.32658
356 1 4.94063 2.91817 17.4802
786 1 20.1507 -10.3496 -9.39579
1612 1 -8.17074 4.3306 19.2866
1418 1 5.50722 17.0164 18.7567
1496 1 7.21288 4.37466 17.6219
1557 1 7.32763 -9.82455 7.04659
1510 1 20.9452 17.1002 3.49835
643 1 -5.68024 3.80116 6.16961
974 1 8.10218 16.6949 5.07659
1041 1 -3.33553 -11.0542 5.20991
484 1 -2.16747 4.19435 4.66872
618 1 11.4646 5.0636 6.70056
901 1 13.6332 17.457 -7.92512
1573 1 -1.18909 4.09244 5.63005
1219 1 13.2211 4.44291 4.10015
426 1 2.50911 19.0056 3.56203
764 1 14.6564 19.1015 5.52415
139 1 14.4725 21.7545 -7.0399
459 1 2.79548 3.47949 3.20175
1149 1 2.59196 6.55932 5.79526
370 1 18.2325 7.57211 4.92219
1852 1 4.25404 5.14134 18.0599
611 1 3.51259 5.48143 3.60247
892 1 2.83058 7.29721 18.4975
875 1 5.50354 4.92088 6.60882
1088 1 3.69848 20.7293 5.26844
1657 1 6.74006 5.51966 17.9383
64 1 5.8226 5.70462 -8.63935
1677 1 6.50861 18.2296 5.35481
2038 1 9.9686 18.4523 18.404
403 1 8.46521 17.8147 5.10622
49 1 8.4649 5.12611 5.93783
1832 1 -2.84646 5.33141 31.9277
1871 1 10.7339 4.74348 19.0626
1447 1 9.47743 4.62199 19.391
1415 1 10.2024 6.70311 20.0726
527 1 10.5836 -9.50567 3.90202
1519 1 11.8906 18.6218 19.3296
454 1 -1.02294 18.7017 4.91262
246 1 -0.973188 18.8153 -7.2752
1236 1 11.1897 17.945 6.28581
1521 1 12.0004 5.94051 6.26553
420 1 -0.289732 19.4595 -8.12278
76 1 14.3458 5.94221 4.75581
1443 1 -0.351764 19.7253 6.56338
254 1 14.5362 9.36434 -7.11975
693 1 0.94773 -6.67781 -9.35018
1981 1 14.6733 8.3129 19.3073
1092 1 -11.8037 -5.93818 18.1847
203 1 -10.0018 7.10337 4.14115
778 1 -5.74446 -7.02114 5.40252
1023 1 18.0772 22.0362 5.48467
1893 1 6.44836 6.35355 19.444
772 1 -4.74704 7.55868 18.9458
1315 1 -6.01295 4.74302 4.9263
701 1 21.9291 5.83604 18.6488
70 1 -5.24994 7.31725 7.20882
1668 1 -3.5883 5.55919 5.47717
167 1 -3.88526 6.73472 5.4959
1630 1 24.6834 7.2228 6.68992
1718 1 25.519 7.06812 19.8029
1518 1 12.5506 21.611 20.3757
94 1 12.7423 20.2888 5.94361
1393 1 0.0949107 7.25567 6.05407
927 1 13.2502 7.47412 7.26846
637 1 0.192177 8.81862 4.96755
1775 1 15.5453 8.82633 18.804
1555 1 15.2497 -4.97512 6.3574
1877 1 2.74982 8.52284 18.3192
1155 1 3.58569 -4.70707 4.80338
1485 1 2.8981 8.91602 5.6216
1903 1 2.58723 6.47485 20.872
295 1 -6.63115 8.43851 5.24773
2044 1 5.35939 22.9573 3.00118
900 1 7.00531 -6.33815 5.57901
1489 1 17.9037 7.50925 6.51387
275 1 8.14207 7.04959 4.16392
827 1 7.93225 -5.89408 18.7699
2017 1 -3.25124 21.507 19.7451
750 1 8.66639 7.90508 6.18759
101 1 10.4186 8.58778 -8.73147
430 1 -2.02716 21.7592 5.30717
1787 1 12.8922 7.45274 5.35369
1005 1 -18.0945 8.85843 7.67693
532 1 10.4574 9.67738 5.02243
1283 1 -2.32922 -4.6703 5.08614
1314 1 -0.723149 8.5042 5.29821
1145 1 13.5543 8.44506 6.18642
323 1 -0.844003 6.44277 4.82669
1126 1 12.2878 8.89859 5.92941
1247 1 15.4197 10.5867 19.1818
1108 1 14.7059 -4.29033 5.35133
375 1 16.4515 9.881 4.16842
374 1 16.3184 9.77607 -7.3392
1618 1 3.77621 8.22085 21.1192
961 1 -9.16795 9.3066 7.19815
545 1 3.84663 10.0277 4.27467
1267 1 3.72902 9.58089 -7.94453
878 1 5.53172 10.1103 5.99136
224 1 5.47467 9.10247 5.60799
317 1 6.0314 -2.77843 4.51434
286 1 20.0639 9.55578 6.13963
627 1 7.96887 8.61481 5.88748
542 1 6.46695 -4.50065 3.70833
2021 1 -6.57618 10.6701 17.8918
1927 1 6.45436 9.25678 4.70885
190 1 6.54192 10.5785 5.402
708 1 -6.26398 -3.29463 6.17535
1085 1 8.36499 -2.79947 5.65475
941 1 9.51512 9.35447 5.11503
1985 1 -4.62315 10.1232 19.3761
1168 1 8.86857 9.02915 5.90132
231 1 -5.616 24.4165 8.22143
607 1 24.9419 -3.63226 5.66565
1228 1 -3.72104 9.48519 6.04173
1238 1 12.5828 10.3975 7.2166
1104 1 12.392 -3.81998 -8.1809
835 1 -13.9577 -4.2582 -7.98161
410 1 -0.846969 11.2461 5.94107
1278 1 1.20868 11.1079 6.23104
1596 1 14.2013 -0.53151 17.848
1217 1 1.11037 11.5597 4.46038
1950 1 29.1243 -4.06103 20.5285
114 1 16.4817 9.87399 5.28246
1099 1 15.092 -1.74613 5.43063
688 1 3.24733 10.6913 5.86481
99 1 4.29295 -3.15237 -8.59107
689 1 4.06181 11.1639 6.59195
1646 1 3.14301 -2.80445 -8.88195
1897 1 5.58034 -3.65356 4.99187
366 1 5.9678 12.7854 -7.19288
1796 1 5.7992 11.9984 4.44806
800 1 7.73814 -1.40538 4.54302
839 1 7.59602 -1.23544 5.57749
481 1 -6.77518 11.5895 4.71737
258 1 7.97259 11.3027 -8.91342
65 1 8.68175 12.0248 6.11512
1682 1 9.93663 11.5355 20.2542
1184 1 8.70726 -1.65505 4.9117
1637 1 9.50783 11.5119 5.23651
1748 1 10.5095 11.7219 5.27147
1763 1 -4.14461 12.4702 5.54199
1419 1 9.35154 12.4408 6.83045
809 1 -2.99458 -1.5779 -6.60943
1150 1 11.0155 12.8351 4.59078
1210 1 12.1507 11.8952 5.49232
1699 1 -2.65621 24.5153 4.93767
598 1 15.0857 -0.197098 -8.74803
382 1 14.2575 0.173041 6.2116
512 1 14.3798 12.8283 5.24151
1805 1 13.9127 11.967 4.31054
990 1 14.9276 12.8582 -6.87433
175 1 2.16938 -1.28665 5.03175
758 1 16.2118 11.4488 5.37988
1144 1 3.50674 -1.92889 5.26303
938 1 17.8424 12.3207 6.25335
1086 1 16.5037 -1.36009 6.0287
980 1 5.844 13.8219 -7.9999
2012 1 18.8118 -2.66234 5.77153
1509 1 8.3987 13.1121 5.07733
162 1 6.54123 -1.15063 -8.30892
1896 1 9.43126 1.02236 18.5707
1022 1 23.0971 -0.189211 5.20332
1565 1 7.14411 -0.773287 20.2665
73 1 9.06037 11.5855 -6.32892
2025 1 11.3127 13.4264 5.38023
876 1 9.08391 26.9 6.03691
1524 1 12.0568 14.2781 5.11864
1096 1 12.095 -0.233966 4.42644
728 1 13.4547 26.5553 4.78209
67 1 0.343956 11.3374 5.32607
1166 1 14.1355 13.9252 5.01646
517 1 -0.612089 -1.85693 4.94513
1026 1 -13.5333 0.509509 8.02491
18 1 2.56559 0.639258 -5.39541
1758 1 15.579 13.7037 7.24555
1161 1 1.21668 -1.13893 21.4719
1642 1 2.3308 -0.835472 -6.76575
1290 1 2.86429 1.44549 6.9722
1363 1 -9.58383 -0.222901 6.686
1452 1 17.6624 15.2325 7.19528
1007 1 5.30133 0.771779 5.08793
377 1 18.2817 0.80975 6.84419
493 1 6.3036 14.9585 7.08982
1730 1 6.00739 0.46265 21.2019
1299 1 8.48598 0.290235 18.3195
2018 1 6.81861 14.6057 21.787
1324 1 -6.46513 1.06591 -7.31997
460 1 10.6251 0.558498 5.5038
331 1 8.21492 -0.819068 -7.15674
1756 1 11.8922 15.8211 5.46109
1354 1 10.5133 2.59275 6.23577
1347 1 -2.02257 1.3585 6.3418
635 1 26.2557 1.2565 5.74488
747 1 -2.55835 0.487806 6.7102
2000 1 13.2197 14.1338 6.39419
164 1 -1.46609 0.44436 7.78182
752 1 -0.579773 13.8015 7.3376
538 1 1.30582 13.702 8.24708
1593 1 14.0423 2.11977 18.5873
492 1 1.41345 28.8119 7.77244
141 1 1.53728 17.5423 6.49746
623 1 14.5271 0.626056 7.17589
1240 1 2.5812 2.52039 6.3091
1587 1 1.61655 1.8938 6.55355
1381 1 -10.1008 3.28538 18.5458
1223 1 3.64786 0.875819 6.5239
811 1 6.22474 -11.7845 6.3968
1107 1 18.686 15.6297 20.3401
1376 1 4.61713 2.83252 4.74905
264 1 7.47841 2.56904 6.19202
1130 1 8.23224 1.53575 6.28535
1020 1 6.60561 17.2811 6.2546
1991 1 10.0639 16.7871 6.9498
818 1 8.93857 2.63928 6.48831
1200 1 9.1249 3.80384 6.60322
890 1 -3.2282 1.73794 4.30669
117 1 10.2405 1.57013 -8.11333
1046 1 -2.51271 -10.5004 7.11419
710 1 -2.21452 16.9444 5.98127
1332 1 13.6652 1.31906 20.892
79 1 12.5837 2.10375 8.35044