ITEM: TIMESTEP
60000
ITEM: NUMBER OF ATOMS
2048
ITEM: BOX BOUNDS pp pp pp
0.0000000000000000e+00 1.3679807573413575e+01
0.0000000000000000e+00 1.3679807573413575e+01
0.0000000000000000e+00 1.3679807573413575e+01
ITEM: ATOMS id type xu yu zu
394 1 1.19353 14.7085 -0.973302
148 1 0.848012 15.9694 0.348469
240 1 15.6013 14.6214 13.5893
869 1 1.14369 1.37482 14.4116
1350 1 -11.7547 1.53841 15.0764
805 1 4.57353 0.9587 -0.59293
11 1 3.75497 0.365652 2.59689
948 1 4.92078 15.087 14.8519
2045 1 16.5819 15.4138 1.89582
198 1 -7.74201 12.6931 2.06324
996 1 -7.57059 13.9244 13.9426
1511 1 5.81534 15.7785 0.925945
434 1 6.33003 1.10087 14.6304
1704 1 6.98837 0.305792 14.4511
940 1 -6.65342 2.13787 1.1857
161 1 8.03616 13.6056 1.24378
406 1 8.7636 -0.76033 1.31096
926 1 22.852 15.3397 1.13583
582 1 -3.52577 2.24017 0.86279
1641 1 9.50424 0.37841 14.429
2013 1 11.0242 15.5015 1.20167
1958 1 -3.30392 0.025153 13.1233
1934 1 0.614535 -1.04862 -0.601572
114 1 13.6534 14.3234 0.357873
155 1 14.8024 13.9114 0.17541
1626 1 12.5551 -12.8512 14.1719
1907 1 14.0127 16.3409 1.20906
880 1 16.2378 16.5946 0.267692
1056 1 14.4823 3.35601 14.282
703 1 17.1793 -11.3173 0.468754
460 1 4.94942 3.15151 2.37201
1029 1 4.7908 -11.2281 14.4018
928 1 6.46422 1.36355 13.3911
924 1 5.06989 2.27914 1.69898
417 1 -7.02603 15.2907 2.55736
513 1 6.56394 -10.5785 1.03026
1920 1 19.4367 3.04931 13.8718
1324 1 -6.45743 1.29032 0.469701
20 1 7.97107 2.17442 0.353272
1318 1 8.56246 2.28076 -0.805104
459 1 -1.61053 3.64242 1.87151
1862 1 11.0906 16.531 14.3364
341 1 -1.45114 2.54174 -12.6539
586 1 12.8013 15.2706 -0.22173
718 1 10.4915 15.2949 13.8633
649 1 10.4788 2.83723 13.2432
1745 1 0.188329 1.64885 13.1393
1615 1 0.766214 1.83829 15.4214
1472 1 13.7877 1.76608 14.2885
1689 1 14.5363 3.52658 13.2662
29 1 15.5812 2.32593 0.757789
1599 1 12.7245 2.61177 12.9694
939 1 0.0887505 17.4157 1.46713
1396 1 2.51017 17.5081 12.5343
758 1 16.6768 19.5085 0.349993
40 1 2.01755 3.5772 1.20265
1531 1 17.4108 6.29188 0.925429
1855 1 17.6309 3.43905 13.8415
195 1 -9.662 4.2124 2.3029
759 1 4.34395 4.47832 13.3043
504 1 19.1192 3.18394 1.47292
601 1 5.56725 4.10044 -0.0586723
1352 1 -6.68355 4.04871 1.15213
1612 1 -6.05538 3.43482 14.0923
1813 1 -4.29703 2.68872 15.0091
2037 1 10.3285 17.4856 14.6608
621 1 11.1664 2.07919 -0.448651
1435 1 11.6226 16.9415 -0.234798
1757 1 12.1815 3.95336 14.0511
380 1 13.9357 4.48364 -0.651646
699 1 11.4193 4.25846 -0.382784
257 1 0.333718 6.94215 -0.131961
1607 1 1.19149 5.43638 28.8045
1401 1 14.2331 5.94137 14.2572
761 1 13.7354 19.3244 -0.673395
51 1 1.14143 5.37717 -0.426248
1074 1 1.97607 6.00423 -12.5386
867 1 1.86606 4.11907 -0.237926
1996 1 4.91478 17.2643 14.3244
749 1 3.90612 4.95784 1.4171
1938 1 3.35935 6.25138 16.5817
286 1 18.6472 6.14746 0.397119
1496 1 5.83583 5.63796 14.3972
368 1 4.98931 4.32705 1.49033
592 1 -7.03697 3.8343 0.267262
727 1 7.90911 4.90131 0.964897
921 1 6.78808 5.56087 1.32508
568 1 10.1715 4.79563 0.561025
994 1 -5.8643 5.31441 12.9278
958 1 8.40592 6.28771 2.21126
523 1 11.7155 5.87443 14.2759
988 1 11.3562 17.4357 1.16877
1047 1 10.3715 6.63314 14.2833
1833 1 12.464 18.2469 15.3256
1268 1 12.8625 6.60949 0.363516
2011 1 12.5915 18.9527 14.516
1298 1 1.20782 -6.78587 14.3499
1385 1 2.12211 4.76491 1.63743
976 1 1.95435 7.26431 1.25624
1905 1 16.0279 6.83991 0.202335
1417 1 1.49274 -8.69269 14.2057
332 1 2.91725 6.71382 1.6581
1408 1 4.73597 6.59849 15.0976
1852 1 6.96 6.34361 14.4081
1882 1 20.2438 7.26708 14.5801
999 1 7.55639 7.98021 -0.845358
1311 1 8.64906 -6.66839 13.7056
2002 1 -4.59088 7.58382 13.0006
241 1 8.67575 8.5834 -0.968266
1784 1 9.00452 20.5578 12.2372
1570 1 -2.8446 7.60497 14.1039
1031 1 -3.44381 -7.34876 1.69217
1497 1 11.6925 19.0097 1.71678
483 1 -2.85721 6.82648 -0.555754
1271 1 13.5766 6.66219 14.8061
1035 1 -1.23925 5.89106 -1.43766
893 1 12.647 -7.81765 -0.449582
301 1 12.4564 7.40864 14.3804
603 1 14.0592 8.72775 1.38151
495 1 13.9605 9.71416 1.78823
1902 1 14.7265 9.40743 14.8145
424 1 0.00374709 8.8725 0.525233
1957 1 2.02111 9.69321 1.60205
817 1 2.94699 8.3624 13.435
898 1 2.78321 8.98189 15.1912
1461 1 3.67534 8.29429 15.1592
1187 1 17.6342 8.00597 13.4917
1893 1 3.89441 7.29167 15.193
1734 1 5.19492 9.97445 15.0585
1215 1 20.0401 8.02719 1.76601
1129 1 4.86795 -4.47878 0.547751
794 1 7.81095 -6.11737 14.1545
698 1 20.5148 22.8321 0.299823
1672 1 -4.07339 7.33457 14.1076
1368 1 10.2623 7.60651 15.085
1092 1 -4.87471 -5.51099 13.8252
701 1 23.8619 7.72177 13.1485
1097 1 -2.96528 8.6957 13.4972
734 1 11.6094 8.21219 0.191487
444 1 -1.80523 8.98804 1.00185
208 1 11.0981 9.77461 0.320459
297 1 10.9189 -5.21128 0.957466
1710 1 10.1858 -4.88657 15.281
832 1 13.6912 8.13578 -0.323411
1895 1 -0.934838 -5.31254 0.235157
1834 1 0.372806 -3.49361 14.4718
1403 1 3.00718 -3.70439 14.5492
1989 1 -12.5682 11.3734 13.5429
1230 1 2.50645 8.51928 14.3372
675 1 4.49593 11.7106 0.475378
202 1 3.58865 9.03391 0.720079
1580 1 19.2499 -3.5682 14.0765
327 1 7.02618 8.59944 1.12228
313 1 20.0818 9.9496 1.01395
336 1 5.30957 9.35289 15.8627
982 1 4.6813 10.9231 -0.095707
631 1 5.71915 9.09906 -0.040339
1251 1 -6.7671 10.9015 13.6762
1293 1 9.50365 9.65916 1.38687
836 1 9.55317 10.1245 3.3799
620 1 9.8548 8.26746 14.4236
1740 1 9.93731 11.3954 14.7008
566 1 9.97293 -3.32484 0.64737
344 1 9.58825 -5.48697 2.20166
1614 1 10.956 10.7159 14.9157
1604 1 11.9059 11.3112 13.7878
1717 1 12.1196 -2.54732 14.8998
975 1 13.0822 10.5913 14.2546
553 1 -0.804537 -4.09393 14.3681
1955 1 -1.6832 -4.58526 13.5218
296 1 0.363193 -1.58064 0.268369
931 1 0.536828 12.3342 1.51741
600 1 13.2295 -1.10021 -0.279298
1295 1 14.9476 -2.42178 15.8373
850 1 1.385 -1.93391 14.5937
1837 1 3.00853 -2.92331 15.5239
63 1 31.2857 -3.84693 1.60569
13 1 3.00241 -1.61816 0.823422
1038 1 4.54956 -2.76819 1.73041
1680 1 -6.51215 9.74348 15.3366
1810 1 6.84379 -1.95958 15.6733
1581 1 7.29842 -2.81473 14.8301
1633 1 8.05623 -2.65604 14.0706
843 1 23.5633 12.0414 15.4278
168 1 7.64821 -1.27308 0.0271435
991 1 9.29188 10.6389 1.56611
1153 1 10.1945 -1.47845 2.75353
1961 1 10.3389 -1.86333 13.6572
510 1 8.84833 13.923 1.83165
2022 1 10.9743 12.539 15.5648
1573 1 -2.22976 -0.0442867 1.74121
696 1 12.3855 -1.67932 -0.734677
954 1 11.9509 12.2017 1.31098
384 1 -1.9353 12.3217 0.0802576
329 1 -0.095038 11.1476 -0.108712
1244 1 12.9276 11.6772 0.47165
650 1 -0.383761 12.1947 -1.42867
4 1 -12.8617 13.2176 0.97632
1442 1 3.50245 14.2049 15.201
1077 1 15.6294 0.551175 0.919921
912 1 2.37393 13.0675 0.730662
1199 1 16.7607 -0.449525 2.7319
1277 1 15.9699 14.329 15.7247
549 1 -9.38507 -1.3853 1.42318
737 1 -7.42541 11.0633 14.9798
1670 1 5.18554 12.0167 15.7488
1225 1 4.42317 13.6476 0.942123
715 1 5.44216 14.0425 1.40529
863 1 19.0574 -1.93706 0.945534
1912 1 7.24385 -0.699851 14.5316
65 1 7.77086 12.6053 1.7769
512 1 10.1209 12.7783 0.981573
1965 1 7.4147 13.5813 15.913
1530 1 11.3378 14.4915 0.955737
1613 1 12.2239 15.174 14.9611
220 1 10.737 14.335 0.190916
441 1 13.4648 13.3924 -0.9491
1373 1 13.3732 -1.10377 14.534
534 1 -1.18338 0.337388 1.45436
774 1 13.5698 -14.149 16.5246
539 1 14.2875 0.582143 1.33179
103 1 -13.5772 1.14553 -11.4848
426 1 2.64697 15.9119 2.89925
1418 1 3.34795 16.6321 15.7736
1776 1 4.58239 14.3832 15.6101
1458 1 4.61337 14.8013 16.6673
1022 1 17.8105 2.21628 2.76055
1478 1 6.61848 12.4408 17.4248
1857 1 5.0116 -0.532129 15.5817
226 1 -6.76111 13.9919 2.96903
218 1 6.33592 13.3973 1.27912
1096 1 7.68831 1.26618 3.28064
1525 1 6.66447 14.4277 15.5709
93 1 21.3992 15.2849 2.31856
1482 1 7.60248 0.870343 1.3746
1829 1 -2.15609 0.871442 2.12713
491 1 -5.09929 14.892 -11.7826
1388 1 -3.88596 0.792475 2.09128
381 1 10.1785 1.97075 1.83337
1166 1 11.8697 15.4629 3.32162
608 1 11.1341 15.4185 2.2911
338 1 12.0624 2.415 0.0131734
1144 1 -4.40842 0.189549 2.79223
1132 1 -0.807017 13.4475 -0.0529046
30 1 13.3528 -12.7378 -12.3634
411 1 13.3434 2.89438 3.28919
370 1 16.0096 2.95485 2.0852
1374 1 -0.0694235 2.27661 2.5153
2032 1 16.7531 17.1398 2.92514
217 1 16.587 15.0756 0.772316
1716 1 16.4484 2.49473 1.23887
500 1 1.32009 2.64878 -11.9097
188 1 17.4035 15.2082 4.68434
733 1 17.5485 15.4987 1.24865
1130 1 4.79339 3.25389 4.73187
1974 1 19.526 15.1189 15.6139
1625 1 4.52997 2.58362 3.90892
1021 1 4.48849 15.0032 3.93343
674 1 5.48913 13.9746 2.59663
1332 1 7.94247 2.60244 16.1703
479 1 8.42432 16.8759 0.972199
920 1 8.7802 3.17785 2.02767
1457 1 9.14807 15.7878 15.8768
349 1 23.4977 2.95669 2.3706
743 1 -2.27636 16.3358 2.73248
464 1 -2.9656 16.6456 1.78251
454 1 -0.55629 16.5652 1.86503
1659 1 12.8222 3.3594 0.940811
2020 1 1.83148 15.5408 16.0671
929 1 -0.597452 1.90787 1.36843
977 1 12.2542 15.8042 2.12862
419 1 0.340396 4.63104 0.755228
1969 1 13.068 4.43351 14.5648
498 1 1.28086 17.9409 1.28936
1542 1 3.01687 3.67354 0.980836
791 1 4.17352 3.37582 15.1405
457 1 4.17356 16.9356 3.14015
1758 1 18.5895 17.6021 3.87125
1545 1 5.83904 16.6554 2.79921
275 1 5.78059 2.86382 3.97041
1436 1 5.18532 15.6968 17.0765
132 1 8.50477 17.7336 0.528664
1229 1 7.51001 3.20098 15.1737
181 1 8.1857 15.8058 1.56031
1793 1 6.19331 2.52864 15.6231
665 1 7.10919 16.9465 2.70973
465 1 9.05015 18.6245 0.76663
1051 1 22.1659 4.11016 15.2276
1447 1 8.48931 4.7001 16.3796
894 1 10.5242 4.11078 15.6344
430 1 -4.78353 20.6803 3.02273
442 1 22.9956 3.88515 2.8579
821 1 -4.86519 16.5937 3.08327
1737 1 -2.63223 3.69007 16.4173
265 1 -3.68263 4.38725 3.77579
596 1 -4.14067 4.85432 2.11427
1783 1 13.5871 5.33877 15.1016
1432 1 13.5424 18.2401 1.97493
476 1 12.9244 3.67977 2.44216
657 1 -0.382006 17.9594 3.30047
1109 1 1.07667 4.03326 3.00927
1258 1 -13.1937 5.31585 2.56208
1508 1 3.94336 4.13799 0.790564
177 1 1.45285 4.82947 2.53591
611 1 3.17842 5.16022 3.52367
1243 1 4.73417 5.1373 2.16025
663 1 5.57825 4.41542 16.1701
1759 1 17.0261 5.14417 2.16135
1040 1 6.1795 -9.90356 1.89708
295 1 -9.0349 5.56439 1.22345
1344 1 19.4548 -7.99429 3.1726
892 1 6.59245 6.70724 16.9673
2042 1 5.84237 20.2627 15.0093
605 1 7.5192 4.45426 1.94991
480 1 5.68023 19.246 1.98383
50 1 7.67505 5.90012 1.50996
807 1 7.70473 5.45088 16.1956
1143 1 8.55667 5.78784 0.796469
429 1 8.63459 5.17188 1.76604
1959 1 -4.16399 21.0251 3.97265
785 1 10.8361 -8.20103 2.58118
519 1 -3.22836 -8.56825 1.56566
1134 1 -1.10654 -8.50693 2.60986
1512 1 -1.0185 5.77313 15.3835
1707 1 14.4742 6.46453 16.3976
1437 1 14.5878 6.45626 1.69438
1480 1 2.20134 19.2386 15.9851
837 1 2.97746 -8.00472 1.41588
810 1 1.68782 6.09819 3.14317
514 1 4.02555 6.1207 2.09814
1550 1 4.80793 6.33848 2.71318
751 1 17.2145 7.27777 4.03992
1075 1 7.08162 20.2766 1.8214
634 1 6.04253 6.36897 2.45638
1485 1 5.2041 7.3901 2.24377
789 1 8.24236 -6.82444 14.9871
484 1 -6.2123 6.56768 2.8426
253 1 8.90415 8.06624 3.05723
797 1 6.91474 8.42005 2.65635
1563 1 22.2649 -6.15821 2.17142
1402 1 23.4363 5.74236 14.5188
747 1 -3.76947 6.47649 2.75915
1885 1 11.2854 6.55752 14.8524
1651 1 11.4066 4.55453 15.9619
179 1 12.3429 20.4467 1.7082
1881 1 11.8095 3.70356 18.5199
572 1 -0.0685445 6.15705 2.06705
1125 1 -1.94062 5.17673 16.8101
311 1 13.4938 5.40901 3.26692
633 1 11.5977 20.0849 2.33291
1831 1 13.5528 -5.72421 15.5243
2014 1 13.2657 8.74016 16.0849
96 1 15.4538 8.43581 1.65926
153 1 12.7358 9.27016 -12.0237
398 1 3.14926 9.25946 3.66956
1951 1 16.7351 7.53917 14.292
520 1 1.71478 -6.75296 2.17808
1393 1 2.86988 7.90955 1.8766
157 1 17.3218 8.96441 2.24836
1412 1 3.4256 8.25683 16.6514
334 1 5.48197 6.68664 3.43942
1320 1 4.12882 7.25365 2.46989
589 1 7.9563 22.3869 0.489521
772 1 -5.69237 7.62998 16.7352
1861 1 6.72364 9.70565 16.4559
2040 1 6.27992 7.48246 16.3313
26 1 23.5853 -3.92676 2.26207
1381 1 -5.42685 8.09623 14.9111
1623 1 11.0888 -5.1608 16.9094
1168 1 9.30548 6.54812 1.07372
1439 1 23.6539 8.875 16.528
1095 1 11.2823 10.5627 15.9563
709 1 -2.12331 7.68902 1.43957
1504 1 10.7474 7.05691 2.22506
1207 1 13.1838 6.98041 16.0387
2047 1 11.8075 22.4067 15.6621
233 1 -1.00678 6.22364 -10.9316
1302 1 15.7762 10.5166 2.49145
1247 1 14.7868 10.1327 15.8946
1924 1 -0.574354 9.82353 16.2886
714 1 1.31654 10.7598 14.7168
1590 1 2.22324 -4.07844 3.14355
1378 1 2.62269 -4.78072 16.2333
874 1 4.72323 9.08424 3.07631
1796 1 4.44096 9.0472 1.51178
1032 1 -7.7282 -4.69426 1.11067
1765 1 -7.6344 10.0293 15.7665
1346 1 5.07098 -3.47164 4.34615
857 1 8.77537 -3.29568 14.3618
1755 1 6.31272 22.678 2.05332
1933 1 8.09683 9.22348 15.1439
84 1 8.90672 9.06329 0.710594
541 1 7.93383 -3.99287 2.57716
294 1 -2.65897 9.33094 16.2048
1980 1 11.4857 11.515 15.6404
1440 1 25.6578 9.86386 2.42126
1775 1 10.9023 8.17517 15.7654
125 1 12.2829 -2.86145 -11.2939
451 1 -1.81541 -3.64434 1.15423
1544 1 0.386066 9.73972 16.9429
1469 1 12.914 10.378 1.66385
1743 1 1.16318 12.3409 2.28323
1664 1 14.0771 10.8719 1.77398
914 1 2.90211 -3.82233 2.29667
517 1 3.33013 -3.39816 3.60507
1799 1 2.68129 -2.64456 16.8854
932 1 3.70826 10.8833 1.05669
537 1 17.5325 -2.80015 16.5508
533 1 5.56115 -2.57252 2.14806
1114 1 5.5801 -3.73344 3.39019
1205 1 7.39462 11.7658 14.5807
1405 1 8.11615 10.4282 1.81719
1300 1 8.0026 -2.20874 1.82806
1538 1 10.2742 -0.00432962 16.5604
1211 1 22.5827 10.0548 16.0926
1221 1 9.11636 11.9834 2.32957
1565 1 10.4582 -2.46374 15.735
1241 1 10.6233 10.0708 16.7629
1883 1 12.437 11.827 15.7137
1753 1 10.9348 11.1858 3.01738
190 1 13.2052 12.8381 1.86822
724 1 -1.98763 11.9965 4.43314
2019 1 0.344438 11.2054 14.4149
1331 1 -0.406015 -2.07812 1.57366
1135 1 1.54062 -0.0168675 15.3316
1854 1 28.0386 -14.1173 2.14749
526 1 1.17917 -0.739359 3.06976
131 1 1.71711 0.363492 2.94673
152 1 1.762 11.4921 3.07756
325 1 1.22829 0.986824 2.07756
1390 1 17.4569 1.37458 15.9389
730 1 15.7902 12.387 1.47763
864 1 16.5863 -1.17149 3.52292
1850 1 15.927 -2.23016 15.8294
1923 1 3.79142 -2.11336 1.88242
185 1 5.23988 12.6278 2.88669
845 1 6.40852 12.2668 1.18817
1406 1 21.6713 12.0969 2.77488
899 1 -8.06532 12.1882 31.2552
1588 1 -2.85789 -14.0956 3.66834
328 1 -6.60558 -1.08375 16.276
272 1 -5.62581 0.645487 2.61511
1176 1 10.3985 1.24652 16.5124
739 1 -3.22905 27.4175 1.13893
1184 1 12.8892 0.381049 2.36274
1411 1 -0.129592 -0.0862633 14.8139
844 1 0.0846583 -1.51454 16.249
1567 1 26.2187 -0.231534 3.3908
120 1 12.2944 13.1558 2.22488
1081 1 14.8992 15.0533 3.0526
636 1 12.8318 15.1786 2.67412
67 1 0.565129 14.6171 4.15406
666 1 1.29389 2.67984 -10.7842
787 1 1.75221 1.11206 3.9393
952 1 4.23397 13.5275 -10.316
1674 1 3.56281 1.74246 3.38524
316 1 18.7222 0.478384 -9.7397
656 1 4.45155 14.6416 19.1072
1946 1 29.345 15.9913 3.84507
1807 1 5.8533 0.044045 17.9475
1979 1 -6.94509 1.08629 17.7794
1769 1 8.00722 28.0025 18.3865
255 1 7.47608 -0.163113 3.86872
1327 1 8.50515 0.273123 3.60203
350 1 21.9453 0.221918 5.61081
1768 1 -3.99856 13.0042 15.8535
1218 1 -3.85179 15.0891 4.22598
1554 1 10.6179 0.499221 5.98558
1112 1 -2.93842 0.408143 4.38703
440 1 11.3029 13.1469 4.71219
1041 1 -2.55193 -12.6859 3.60363
423 1 -2.33457 13.9366 2.96341
1476 1 -4.18312 15.6171 5.21162
1579 1 12.503 2.0197 4.81634
1354 1 12.7364 -1.28524 3.04837
1255 1 -0.8281 1.98253 17.3248
617 1 0.501687 3.27922 2.54304
795 1 14.8306 3.24253 -9.74498
506 1 2.30003 16.9662 3.65244
309 1 16.5047 2.25395 4.64668
792 1 14.6525 -11.6924 3.89709
382 1 19.2224 2.46656 4.97394
644 1 3.36095 3.03022 17.5876
1066 1 6.14891 -0.361612 3.2281
1451 1 5.27896 0.916052 4.75324
1216 1 5.84289 1.20094 3.25426
712 1 5.79171 15.2991 4.2724
1343 1 7.66881 2.96255 4.56227
1281 1 -7.095 2.34832 4.43874
1730 1 6.79062 2.85897 19.0656
112 1 7.1332 2.35704 3.57118
330 1 8.93595 1.21852 2.87628
1859 1 -5.58838 1.78769 18.0315
1313 1 -5.42113 15.7313 3.30718
1727 1 8.78695 3.19896 4.29832
263 1 10.7195 1.97441 3.53091
210 1 11.8756 15.0259 -9.27457
1257 1 10.8149 15.1626 4.62871
1665 1 -2.08568 2.41373 4.4977
1662 1 13.871 1.37075 3.28118
1925 1 -0.717218 14.6539 3.82778
685 1 -1.36153 2.95499 3.02255
1535 1 14.6793 19.2555 17.2887
992 1 12.6422 16.7702 17.7239
395 1 13.7573 3.46268 4.18757
1754 1 14.4844 17.4231 4.86441
123 1 16.5929 3.98942 1.9149
890 1 1.08382 5.30503 4.56511
75 1 0.769923 4.31429 3.99466
842 1 2.87956 4.12701 -9.87838
437 1 3.90008 4.38298 3.37086
746 1 -6.87206 17.8735 2.87128
261 1 4.82217 4.70874 4.50304
1774 1 5.36757 17.7091 5.39729
171 1 5.83473 18.211 4.64555
653 1 -7.05481 3.31904 4.09664
49 1 7.93402 3.89012 2.65199
1294 1 -5.20801 3.88437 3.59198
1522 1 9.57689 17.4818 1.69518
1718 1 22.7311 4.82517 17.3349
221 1 9.73255 15.6463 3.10312
1844 1 10.32 -11.112 18.1913
1652 1 -3.42276 4.61536 2.83507
1219 1 11.5471 3.48049 3.80533
163 1 0.0421211 5.72327 -9.26431
1832 1 -1.35561 4.56261 31.835
1981 1 13.3575 4.77213 17.916
2036 1 2.61218 4.39989 16.5627
1362 1 1.90942 3.61239 2.72669
142 1 5.53646 4.66571 3.65548
612 1 2.97019 7.20586 2.86853
1263 1 7.7625 4.69052 3.45239
1872 1 3.30748 4.31823 5.18575
1363 1 -9.80787 3.79368 4.43931
1430 1 20.4083 19.1984 2.68917
750 1 5.20353 5.64741 3.9657
945 1 19.9184 20.0332 4.16225
1011 1 6.53538 18.9125 4.03522
833 1 6.88877 7.03599 4.64542
1940 1 8.98328 5.21773 18.8999
1521 1 8.26128 7.03227 3.93252
1645 1 -5.63375 5.02107 4.4334
1661 1 8.11708 5.5233 19.2672
1030 1 9.27482 -7.93699 2.55381
860 1 8.45969 5.76727 3.35419
973 1 10.3083 -8.29618 4.95123
828 1 9.92578 5.43483 3.38597
1379 1 -3.18975 2.97797 3.19858
1103 1 11.0416 4.54682 3.86823
159 1 12.0718 17.5838 3.11147
909 1 13.5214 6.44673 3.11439
1409 1 1.62451 9.01427 2.67845
1223 1 2.09142 5.00511 3.61037
602 1 15.5738 5.93468 4.1365
651 1 2.94077 6.26693 3.86662
31 1 4.32754 5.29314 3.12269
1929 1 2.96426 6.71859 4.79642
1896 1 4.69397 7.24479 17.8784
418 1 6.01324 7.32518 4.16088
141 1 4.17229 20.2214 3.4954
1433 1 6.1082 -5.28601 18.0863
615 1 7.93287 7.36299 4.97891
900 1 7.46799 -7.43452 3.85024
974 1 9.15979 20.4295 4.95119
1514 1 7.32634 7.22805 3.76524
183 1 8.24293 -7.35759 4.7327
402 1 10.9598 7.64032 3.7019
1518 1 9.40486 19.3879 18.1255
1118 1 10.8103 6.73178 3.21775
552 1 -3.61839 6.33133 -9.72644
2038 1 12.2737 19.4206 19.5176
1005 1 -14.9486 5.50156 3.80261
308 1 13.5723 7.08829 4.71751
1006 1 2.55202 22.1942 3.58117
1159 1 -0.0973498 -5.96234 2.88589
150 1 1.00135 7.83174 2.57634
1058 1 2.01938 8.05 16.396
1427 1 1.40046 7.05279 3.44946
1877 1 3.16887 10.0244 18.3167
1033 1 4.113 9.64515 4.37802
1858 1 4.32143 8.00912 17.0741
248 1 16.099 21.1847 3.8664
872 1 7.55097 -5.93683 1.88052
1871 1 5.32305 8.22741 17.3725
989 1 6.58057 21.6445 3.57284
1165 1 5.70806 8.32333 2.67312
1722 1 21.8841 8.43792 2.35016
1532 1 6.75984 9.54648 17.7711
1630 1 21.2239 8.15436 4.03316
1250 1 9.50029 7.06157 15.6672
1985 1 -3.73559 7.57994 16.6491
1391 1 12.4606 7.77062 2.17218
822 1 -4.25043 8.40252 4.1054
599 1 12.7234 8.25855 1.34731
953 1 -0.82747 6.57978 -9.81193
1750 1 12.5964 7.49505 3.49228
1631 1 11.5126 7.67188 2.71861
1543 1 -1.34759 -5.19177 3.00836
86 1 28.6602 -4.42668 3.81994
1699 1 2.22859 23.0517 4.38132
1805 1 15.9253 10.4045 4.40221
1013 1 16.061 25.4635 3.92966
1966 1 1.74648 10.5425 17.1614
61 1 4.46705 10.2491 3.59292
1698 1 -9.67998 9.90176 16.5342
375 1 18.9089 8.24173 1.65122
1089 1 4.01663 -2.88579 18.1698
2039 1 7.57252 9.23182 17.2393
172 1 7.27911 10.5042 3.7245
133 1 -4.69511 9.03835 2.02328
1638 1 -3.96135 10.907 16.4632
1935 1 8.23381 9.08995 18.0422
481 1 -4.71225 9.02656 3.36459
1771 1 9.23046 23.6553 5.25786
1690 1 11.3204 10.9055 17.6407
2 1 -0.883214 9.35723 3.61375
1198 1 0.600231 22.496 2.43995
39 1 0.449437 11.113 4.2008
922 1 13.3492 11.183 16.3751
1279 1 1.33807 27.2502 3.94681
1808 1 14.3204 -2.64684 2.94688
2024 1 1.47091 11.3076 17.8949
1248 1 14.5454 10.1538 4.1392
24 1 2.21141 -1.0735 2.64277
997 1 3.84776 25.3424 5.00936
1839 1 4.62723 -2.12288 16.5555
337 1 2.87448 24.9679 -8.77729
1131 1 3.10415 -1.42855 4.68854
1273 1 3.22031 13.4433 5.32455
1023 1 19.8344 22.6119 3.46678
144 1 4.76344 -2.24542 3.96578
462 1 3.92164 12.055 5.99518
562 1 7.64718 -1.39866 4.18428
216 1 7.62581 10.8315 2.64027
6 1 8.13725 -3.09112 4.43706
1886 1 8.63613 11.0065 16.3746
2021 1 -5.27582 10.2048 17.1313
1932 1 10.219 -2.22218 17.7873
310 1 9.13718 11.496 3.46087
542 1 7.22723 -3.32282 4.77503
1950 1 24.6549 -1.96245 14.7332
1863 1 10.383 -3.29283 17.6891
1756 1 9.23074 10.779 4.54643
317 1 10.2999 -4.27739 3.80896
998 1 -1.43021 10.6526 3.42322
545 1 0.786945 12.014 3.50645
73 1 13.6459 10.5874 -8.73112
1945 1 13.6574 -0.864445 3.72585
1777 1 16.2469 14.0477 17.3454
268 1 13.6416 0.173647 3.71869
1063 1 14.251 -0.402595 4.52539
1660 1 2.89213 14.7829 2.90297
1593 1 15.5783 -1.36838 18.7051
801 1 -11.4698 0.800452 5.04706
1328 1 3.46753 13.1534 4.20201
1287 1 2.79438 1.29371 4.09492
1155 1 6.53769 -2.81392 2.83847
1761 1 5.00652 13.1343 17.4889
1342 1 17.6541 -1.24964 16.1937
290 1 -7.54393 11.8645 16.586
961 1 -5.54605 13.2053 4.73155
1289 1 4.71378 -1.22118 4.66825
487 1 -6.10195 11.4464 4.87426
1018 1 8.40185 12.8349 3.63302
1296 1 6.0237 -0.831664 18.6164
509 1 8.56892 13.0974 2.52554
878 1 9.2704 12.4044 4.01408
1429 1 9.44579 -0.835126 3.17551
1483 1 -3.84261 14.259 17.2359
1733 1 -2.05283 12.8463 3.13492
1085 1 11.8605 -2.06969 3.34767
917 1 10.8794 -1.45929 3.69364
271 1 -1.0251 -1.25499 -9.43195
901 1 13.2316 11.694 -8.59736
1995 1 0.777505 16.4027 4.77841
1082 1 14.29 0.384007 2.80055
1280 1 1.41584 13.8057 6.58054
497 1 1.47011 15.9969 5.49333
1091 1 1.52601 13.344 5.41943
236 1 1.88703 15.4527 -8.84565
1819 1 2.51742 1.87017 19.2831
1766 1 6.65266 15.2232 5.09384
81 1 5.18001 0.837301 6.99873
1789 1 5.73063 13.587 7.63514
1677 1 4.15516 13.9076 4.49657
576 1 6.12849 0.520031 5.39144
496 1 -6.94981 13.1225 19.3336
1236 1 9.39395 13.363 4.05111
583 1 6.84189 -1.20835 6.52232
1752 1 8.81662 1.13228 17.6744
544 1 9.03626 -0.438256 -8.38823
1627 1 9.1436 -1.61742 6.53089
779 1 10.0642 -0.271977 -8.8761
139 1 10.0197 14.4539 -8.64177
1884 1 10.723 13.1651 20.4683
180 1 -1.12292 -0.550026 -7.99115
362 1 11.8109 0.3046 4.17101
1488 1 -0.417939 1.30216 4.84559
981 1 24.0847 14.4284 -6.69351
178 1 12.6272 0.0358061 -8.79319
463 1 13.4091 12.7951 5.02791
1778 1 13.4189 16.2164 5.22684
694 1 1.75651 16.9277 4.69163
1555 1 14.8257 -9.24415 5.52071
1510 1 16.8568 14.2396 4.61237
1773 1 2.2964 2.92688 5.58453
71 1 4.02377 3.4021 5.43344
1392 1 4.773 1.87586 19.0808
1904 1 5.42023 18.428 20.1288
884 1 6.1428 3.57532 -8.75466
942 1 5.57003 1.15062 6.07187
1341 1 19.7871 15.8958 5.96491
1849 1 5.94963 3.83321 3.39789
2001 1 -5.92599 1.82322 5.40235
357 1 8.69694 1.2714 5.67595
809 1 -6.51881 2.20633 -7.55179
788 1 9.52763 2.49797 6.15727
1217 1 -2.83905 16.291 5.29514
1835 1 -4.33685 2.38939 4.09703
1519 1 11.2541 14.4891 19.0222
501 1 -1.44156 14.6987 -8.26771
741 1 -1.73336 16.5127 5.83384
37 1 -1.21928 1.78839 -7.61063
1729 1 -0.565252 17.8415 20.5034
1365 1 13.7371 2.15531 4.19489
1668 1 -0.564268 6.59197 6.15077
551 1 -0.409656 5.56115 5.77106
1158 1 15.8825 4.10905 5.35275
41 1 1.85815 -8.37765 5.32188
637 1 2.82712 4.68979 6.09431
490 1 2.94969 17.0085 -8.85933
721 1 5.3016 18.8321 5.36546
291 1 -7.48164 5.77334 6.94556
1725 1 18.5119 -9.95251 6.22941
322 1 6.31385 4.46788 5.88953
1772 1 5.8231 3.21398 5.76579
1266 1 6.85579 3.73725 6.37509
1557 1 7.0712 -9.83766 5.32243
692 1 7.59925 3.99657 4.22767
324 1 -5.85283 16.849 -10.1267
204 1 -5.49319 17.4219 5.37943
610 1 -4.05887 3.38115 3.70078
1286 1 9.52251 -10.7196 18.6984
1366 1 8.52034 2.40073 5.00253
502 1 9.65919 4.0478 6.29901
1002 1 12.1507 18.2313 7.03095
1292 1 10.7176 4.59718 19.7005
377 1 13.1699 3.96131 4.95205
1891 1 -1.288 3.65538 6.40192
206 1 -2.14418 15.6155 5.37786
1847 1 12.579 3.07956 18.7142
1973 1 10.6552 3.57528 18.0989
618 1 12.8794 4.58291 5.72418
670 1 12.8537 6.40104 -8.43866
363 1 1.91316 4.18015 4.32586
276 1 0.278209 4.9346 -8.48144
1001 1 3.08345 5.41882 5.27405
1149 1 2.64115 5.03058 4.46765
1282 1 2.83184 -7.29318 5.75675
1426 1 14.4004 19.5348 19.3148
848 1 4.26729 4.53453 5.77497
1034 1 -11.2 -7.34947 20.4992
1533 1 18.5496 19.373 19.9857
1303 1 18.8606 6.47202 4.64635
285 1 17.4719 4.96476 -9.31677
174 1 4.34446 19.1876 5.41664
764 1 6.91711 18.4699 4.97961
1656 1 6.0268 -8.04232 4.86198
1936 1 -6.06105 4.58501 19.5216
756 1 7.08743 19.6145 5.20779
59 1 7.72714 6.3264 -7.68011
905 1 -4.78923 4.3601 4.71165
367 1 7.85936 4.87768 6.80416
1647 1 9.85102 3.92492 4.8991
44 1 -2.6663 5.72677 -9.92187
219 1 11.844 19.6671 4.6877
852 1 -2.44723 4.90001 4.90166
76 1 12.3037 5.53282 7.67853
1479 1 0.301703 20.8354 5.65337
158 1 14.532 6.68453 4.57103
1414 1 0.542316 21.1487 3.89796
2031 1 14.2842 7.78073 4.97608
879 1 1.74108 7.75927 4.49833
580 1 3.682 6.03311 4.53116
2035 1 4.11812 7.83531 18.4832
320 1 1.92795 6.69851 4.7468
345 1 17.662 6.76223 5.15038
1049 1 4.82295 7.2629 5.47398
356 1 6.09977 8.35633 19.4201
14 1 5.20158 -5.69107 4.76078
686 1 7.1585 7.32179 5.79764
918 1 8.33559 5.58165 7.49891
941 1 8.61297 7.04804 5.70626
1136 1 11.0071 6.65714 4.37031
919 1 -3.30089 6.34441 6.49413
1171 1 9.29749 6.28497 5.97639
478 1 10.1082 19.9725 5.22442
1748 1 11.3362 7.68264 4.89638
856 1 -2.87499 -6.69451 5.7168
101 1 12.4113 7.16149 -9.05909
1064 1 -1.80241 6.71844 3.67658
252 1 -1.86365 20.453 5.37189
1632 1 16.2045 -5.26802 4.63254
1364 1 14.3132 -5.09457 4.33018
877 1 15.8399 8.16914 5.62659
1070 1 3.40574 -4.13582 5.72278
1360 1 1.50263 -5.59175 3.59614
1786 1 17.5537 21.4134 19.5367
814 1 3.17996 -5.93154 -8.55739
445 1 17.1179 8.32299 4.14387
720 1 4.39177 8.93934 5.52126
688 1 2.40742 9.34935 5.47113
679 1 4.6041 8.65159 4.30242
1509 1 4.56088 8.3498 6.48278
392 1 4.34547 9.96416 5.36867
1987 1 -6.81095 9.16351 18.7685
128 1 19.1918 7.64746 6.27677
1903 1 6.92934 7.99114 18.5471
499 1 20.8305 8.56342 -7.70888
469 1 6.85047 9.64415 6.18827
748 1 -4.62971 22.2081 6.34894
840 1 8.52603 9.44217 19.6275
104 1 9.39295 7.96439 5.6067
230 1 -3.10097 7.94968 5.72278
1148 1 10.2369 21.1217 4.76469
639 1 9.07264 9.63195 4.31064
1239 1 25.3771 7.79263 6.08795
1640 1 11.3174 9.71319 4.41644
716 1 -0.672406 21.6297 4.30967
145 1 12.2455 8.20412 5.09097
1943 1 -2.35014 8.64231 18.6648
1052 1 11.7008 8.45022 4.09794
471 1 0.714487 9.40093 -8.59798
391 1 3.50929 -2.23834 3.72891
1305 1 15.168 8.78489 4.83206
97 1 2.37198 -4.30047 6.49738
1200 1 5.34838 9.19063 5.79153
111 1 3.51991 8.85183 -8.67144
1800 1 4.24159 -16.8835 20.0579
870 1 -8.54029 -3.07245 18.9662
1377 1 -9.53043 12.961 19.53
1116 1 5.16529 -2.72427 6.7334
203 1 -5.68205 8.45738 5.27589
1278 1 5.46524 9.26682 4.26745
156 1 9.08026 8.96559 5.17484
825 1 8.0938 7.98335 6.12539
1357 1 9.65573 9.32347 6.03262
910 1 8.78703 8.00844 -8.92236
289 1 10.4994 9.71696 -8.57802
813 1 -1.95327 9.54948 3.53405
149 1 -1.78364 9.30551 -8.1538
1709 1 13.3326 10.3911 3.8644
1848 1 12.6137 9.07772 4.62368
946 1 -0.108543 9.49829 4.39033
1238 1 14.7147 10.4343 5.19804
851 1 13.6426 8.608 3.37626
1978 1 13.9191 -3.99999 5.9561
767 1 13.1197 11.1082 6.93842
1232 1 0.742863 12.8238 6.54673
1413 1 0.654162 11.8061 6.77741
214 1 14.7242 11.6555 5.06637
35 1 2.21915 -3.28242 5.59925
175 1 -0.0233965 -0.814822 7.21147
400 1 2.68276 11.8465 6.46592
579 1 15.0314 -2.92213 6.43134
1738 1 5.57298 11.4942 18.3191
468 1 5.91599 11.0833 -7.86612
711 1 8.08901 11.376 3.60657
22 1 5.66002 -2.72974 3.40408
1197 1 9.20246 11.0503 19.3485
1749 1 8.58506 11.8523 4.44263
1927 1 6.31593 12.1413 5.74689
800 1 10.1816 -1.34121 4.64539
559 1 10.1999 -3.53958 6.5743
2043 1 11.1604 12.2339 6.4994
638 1 26.1928 -2.71705 4.76499
1763 1 -1.4947 10.4374 5.67055
122 1 13.134 11.5964 3.84592
1918 1 14.0072 12.0847 4.56851
1913 1 13.0622 10.9117 19.5779
569 1 15.0597 -1.57603 5.94716
1380 1 0.312283 -0.084505 5.70518
1481 1 1.99655 11.4372 5.61828
18 1 1.81259 -1.11036 -10.0303
82 1 3.61397 0.70324 3.65513
1764 1 -10.1727 15.9942 5.66515
197 1 -11.2354 13.0094 -9.40783
1798 1 3.06019 -1.11231 5.91785
803 1 3.99965 -1.24563 3.60227
264 1 6.63932 -2.36946 5.14066
697 1 18.9066 12.1376 5.56066
293 1 -8.53807 -0.290248 5.06836
936 1 6.10732 10.5192 4.52127
1274 1 21.0303 12.5073 5.30564
1648 1 9.7523 13.162 6.10956
554 1 10.288 -2.59125 5.27295
245 1 10.3806 12.0617 5.80326
547 1 -1.42311 0.763933 3.17283
361 1 10.7804 -0.605168 5.6832
947 1 11.557 12.4362 5.48634
2000 1 12.5435 12.0401 5.95785
488 1 1.22102 14.1886 4.9924
1596 1 13.9991 -1.54969 19.4447
235 1 0.62392 15.3284 -8.51679
1443 1 -0.171135 15.1538 5.87118
1569 1 1.73213 2.248 6.46736
895 1 15.2565 1.31748 5.73184
482 1 2.69574 13.9199 6.06999
1395 1 15.2773 1.12075 6.83333
661 1 3.00756 14.0886 8.27246
1026 1 -10.5388 1.02022 5.63669
1767 1 3.91255 14.6283 20.5778
1534 1 2.58568 14.4534 6.92154
12 1 4.36391 13.601 6.93992
1193 1 4.85261 13.882 21.595
1691 1 4.54684 1.45688 7.48492
1410 1 6.13517 14.1537 6.72294
887 1 7.18384 -0.0310093 -5.21174
1646 1 6.599 1.28959 -7.19938
689 1 7.20248 14.4469 5.54145
625 1 7.56182 13.6099 6.41782
1841 1 7.81766 1.53797 7.42952
2017 1 -5.21399 13.939 20.327
726 1 11.6284 13.6738 6.23962
1915 1 23.7133 1.50015 6.18074
239 1 13.2701 12.6214 6.31917
888 1 23.5945 -0.6066 7.31544
390 1 -1.02803 13.5204 6.85841
1986 1 -0.7808 14.2919 6.24014
182 1 14.755 3.03804 -6.96101
1111 1 13.428 -12.6872 7.02076
1587 1 0.519001 2.6145 5.95929
540 1 0.0763959 3.28633 6.88546
184 1 14.3481 15.375 6.62156
1574 1 0.0399389 3.5395 19.4874
752 1 1.71014 17.3576 7.3524
432 1 2.32665 16.5064 6.92004
92 1 16.6736 3.69114 -7.60218
1606 1 3.8559 3.12177 6.45707
1653 1 4.4291 3.38394 7.27041
1820 1 1.44006 -10.2596 19.4732
1489 1 17.8497 1.76335 6.27285
1582 1 5.08247 2.51991 6.31386
1245 1 7.04177 0.750303 7.29154
1019 1 5.61797 4.1191 7.7507
647 1 -7.31111 2.87981 6.65974
326 1 -4.28768 0.494929 6.08809
273 1 7.6993 1.31701 6.25289
303 1 -3.48675 3.2709 -7.80267
891 1 26.1135 15.1045 7.06121
1397 1 10.1954 2.19903 20.5861
911 1 8.71855 1.28316 20.5253
213 1 11.0091 2.38834 -7.28283
1561 1 -2.30203 1.1747 20.2404
742 1 -0.765001 16.4902 -7.55055
304 1 -1.4672 2.43061 6.98683
560 1 0.11044 4.8244 6.25865
489 1 0.725011 4.04942 6.69255
1941 1 0.816385 6.8053 8.05421
278 1 1.09992 -8.71999 -7.20968
652 1 2.63759 5.29065 -6.69422
904 1 2.73273 19.1975 7.98312
841 1 -10.2525 5.61665 6.18773
593 1 4.15325 5.25965 6.88431
2007 1 3.30451 4.54255 7.68752