ITEM: TIMESTEP
100000
ITEM: NUMBER OF ATOMS
2048
ITEM: BOX BOUNDS pp pp pp
0.0000000000000000e+00 1.3679807573413575e+01
0.0000000000000000e+00 1.3679807573413575e+01
0.0000000000000000e+00 1.3679807573413575e+01
ITEM: ATOMS id type xu yu zu
992 1 14.1459 1.4403 26.8275
376 1 12.9474 0.857871 16.0964
1988 1 2.74491 13.4021 14.8686
435 1 1.7935 13.0436 0.984353
871 1 1.85002 15.7111 1.75803
649 1 3.05081 0.390576 14.2154
580 1 3.99623 15.7104 1.69322
1621 1 -7.74615 -12.6558 15.123
382 1 18.279 0.417121 0.826875
1769 1 7.96133 28.1872 16.2582
2045 1 22.0466 13.9741 -0.170338
1858 1 8.1982 1.98202 14.3333
1752 1 9.12443 2.07616 14.8417
396 1 9.23396 15.6877 0.112227
1395 1 9.78446 15.0693 14.549
359 1 9.92915 -0.664088 0.267227
412 1 23.7996 1.43043 -11.8002
1482 1 -4.19156 0.145919 1.62155
1332 1 11.5872 0.07377 14.7515
267 1 -3.20099 1.28304 0.151332
398 1 0.250169 16.7307 0.2917
646 1 -2.98231 0.121607 15.4419
1662 1 13.895 0.402014 -0.0922916
1346 1 0.652197 -12.4476 0.391307
1531 1 15.0732 0.553 1.5778
1976 1 13.5819 2.0334 14.09
1120 1 17.7138 2.78735 14.0925
772 1 2.65053 2.63779 15.6334
358 1 3.37922 2.96414 14.8821
1461 1 2.68444 1.60952 15.1464
594 1 4.60819 2.9084 14.9439
988 1 3.69249 15.4143 0.67813
319 1 18.9325 2.84182 0.160828
695 1 18.6528 3.94085 0.623294
1987 1 -7.60605 14.9138 13.6909
1795 1 -5.94422 2.84147 27.4472
1399 1 19.8627 1.87546 14.5985
125 1 8.90481 4.12056 -12.8415
1970 1 -19.7186 2.87563 14.7906
1841 1 8.94937 3.04638 1.6262
913 1 9.99807 2.6623 15.0295
297 1 -3.4022 -13.2088 0.948029
754 1 23.9103 16.0897 -13.4497
401 1 10.9961 15.8336 1.44224
379 1 -2.64874 14.7329 1.18984
603 1 11.5359 4.69512 0.373988
659 1 0.197302 29.7845 -0.626484
1273 1 1.94036 4.35591 1.10899
1880 1 3.20844 4.00658 1.84308
1844 1 4.08308 -8.59081 13.9852
99 1 5.26046 3.94004 -11.8794
1192 1 17.9326 3.62104 11.3616
1053 1 19.6587 -10.286 0.633261
901 1 20.1359 17.8355 -12.4663
1652 1 -6.69752 3.48173 2.04358
701 1 20.6999 5.08781 15.0437
2021 1 -5.64649 3.68612 15.4176
808 1 7.86303 4.53568 1.01201
1601 1 -2.63611 4.34529 14.9878
95 1 -3.90178 17.397 1.24652
1025 1 -2.52562 15.6463 0.459586
652 1 -1.74948 3.92502 -12.5226
1507 1 -0.420855 19.255 14.5191
238 1 13.007 4.62271 1.06447
627 1 0.0102462 4.18496 14.0043
1687 1 0.9627 4.42198 27.9027
1469 1 15.2449 5.28891 0.56876
643 1 -11.5105 5.22428 1.73799
1835 1 1.9912 4.43312 -0.0213178
16 1 3.02456 4.41233 13.3756
1274 1 17.2137 5.01901 1.52629
1575 1 -10.958 5.03013 14.2086
198 1 -10.1057 20.35 1.6124
1029 1 4.84187 -9.14026 13.4127
1048 1 4.47155 6.042 13.5483
1237 1 6.65665 19.4 -0.490477
1617 1 6.5509 -8.59155 14.1312
1492 1 20.4891 -9.57682 16.6629
1280 1 6.72522 19.1649 15.8893
760 1 7.58625 4.59153 2.26199
1834 1 -2.86942 -10.4102 28.007
1064 1 9.41662 4.51872 -0.0177624
285 1 21.8897 6.22474 0.232923
1370 1 -1.59665 -8.56659 15.0352
1981 1 10.2376 4.6923 14.4372
1057 1 -1.83736 -8.20031 15.9821
1368 1 24.8598 5.30024 12.72
970 1 12.9321 5.2848 1.99555
1735 1 0.637837 5.42403 14.8038
1116 1 -0.0154701 6.49591 0.860172
1093 1 14.3572 -7.62385 13.8734
1855 1 14.0292 7.53987 14.4857
1814 1 14.8375 5.43175 15.8005
1639 1 15.1762 6.52245 14.2333
756 1 3.25022 22.4049 2.1208
852 1 -11.2566 5.26234 -0.580719
855 1 2.40647 -7.62417 13.7299
1996 1 4.0101 21.5728 15.4883
199 1 -10.1407 -8.17615 -0.498666
1058 1 2.60985 7.05242 14.2514
585 1 4.92908 6.37249 26.15
1551 1 5.37298 5.5266 14.0383
1306 1 5.69897 6.79334 16.6806
45 1 5.94057 6.29846 -12.8704
111 1 7.6608 6.93178 -12.861
1774 1 6.17024 20.0444 15.7716
1183 1 -7.07526 -9.74279 13.1416
1362 1 7.55454 5.18532 -0.0606694
1832 1 -5.20949 6.45721 26.545
338 1 7.15977 5.93206 0.646008
1911 1 23.1335 7.42377 13.5285
571 1 10.1912 5.79956 1.03048
1890 1 10.4457 -7.9519 -0.155465
1615 1 -3.86173 6.44253 13.9279
1506 1 -2.56912 22.0493 23.8623
1109 1 10.8938 -7.10752 0.44514
1339 1 12.0358 -6.80991 13.9948
1929 1 -0.0847162 6.68638 2.10493
978 1 14.3863 21.1972 1.90044
485 1 1.56373 -5.1506 2.09336
1978 1 15.9803 -5.30826 1.4839
1800 1 1.67052 -18.4213 13.1243
956 1 1.77513 21.2686 0.992125
1340 1 3.54782 9.1028 27.4641
24 1 4.82867 -6.66112 -0.185612
1683 1 5.11045 8.11258 13.553
1631 1 15.7487 6.7493 1.37153
1689 1 19.3521 8.95342 13.6381
1061 1 6.1191 -6.04102 13.7853
548 1 -22.0978 7.43676 0.889656
1502 1 19.5092 22.1669 14.6415
1594 1 20.1581 9.48251 14.496
776 1 6.2253 8.36003 13.005
1283 1 8.62104 -4.53873 0.702149
27 1 8.72491 -6.63972 -13.0607
883 1 8.0564 7.19706 -0.126081
291 1 -5.85336 9.27373 -0.357264
604 1 10.366 7.38336 12.6371
420 1 -4.83735 23.5512 -13.9283
1728 1 9.20146 8.51949 13.6741
1245 1 10.9948 -3.93538 12.7919
746 1 -3.34368 21.1026 1.06538
918 1 10.077 22.3181 0.554373
818 1 10.9236 8.62941 -1.23518
1004 1 -2.02732 22.5669 13.3587
449 1 0.585378 8.8893 16.2842
1802 1 14.997 9.92236 16.2299
1713 1 14.7579 -4.20832 -12.1085
843 1 28.8537 8.82047 14.4771
63 1 30.0121 -4.16304 1.3717
1070 1 3.17551 -2.15719 15.1298
1418 1 0.802868 22.9236 13.7476
42 1 -9.84477 10.1485 16.2548
218 1 4.31776 11.9675 1.80352
1037 1 4.09287 -4.80505 15.0341
1887 1 18.2194 10.2283 13.4308
930 1 -8.2278 10.1152 14.6821
2040 1 6.30943 10.4142 14.1899
378 1 21.3296 9.35285 0.743229
728 1 7.9861 24.0624 0.0759218
1438 1 23.5151 23.579 -0.522412
951 1 -4.17302 9.25979 14.9063
1680 1 -4.54687 8.76126 16.1829
2047 1 11.4411 22.1903 16.301
168 1 10.649 -4.2701 0.0914459
1624 1 12.4917 -3.9663 12.7127
533 1 11.885 -4.16949 1.7216
1325 1 11.5193 7.3652 1.30622
1206 1 12.1753 10.317 14.8363
787 1 -1.30336 -4.86972 0.66312
802 1 0.507728 24.2771 17.0602
88 1 14.5202 -2.60292 0.448482
1167 1 -12.362 -3.02297 1.61396
2019 1 0.173656 9.84938 15.6455
92 1 15.8258 11.1817 -12.5052
1437 1 15.5853 -2.36008 0.195424
923 1 16.7687 10.5443 15.5431
1852 1 3.58649 -1.51177 13.0534
46 1 5.14407 -1.68104 0.330513
1684 1 4.78059 -2.51396 14.9982
641 1 5.83369 11.3091 14.6149
510 1 3.95778 11.8678 0.737168
973 1 5.77129 -1.68371 15.4774
872 1 6.11096 -14.5451 1.23527
468 1 6.73808 10.0349 -11.1836
221 1 9.04433 11.1616 0.184892
1548 1 6.85251 -16.1135 14.6279
1831 1 24.5354 -2.56622 13.8736
1268 1 9.9898 -3.44631 -13.0287
1674 1 11.1141 -3.23903 0.893845
1169 1 10.4889 12.1159 2.57177
316 1 14.4693 -0.721672 -13.011
578 1 11.7534 11.359 1.01125
1570 1 -1.19426 11.5184 13.1011
1721 1 28.6091 14.0584 14.1408
1886 1 14.1569 13.8417 14.9513
906 1 -12.6094 25.7625 -0.514286
1095 1 14.2491 13.1122 13.3297
892 1 1.43048 12.0461 14.8108
2014 1 15.8039 14.6418 14.4109
1580 1 15.5039 -1.23384 13.7558
214 1 17.4346 12.9722 0.580856
1185 1 -9.53264 -0.271817 1.51519
545 1 2.7745 12.3816 0.772452
2048 1 7.89789 14.2898 15.0784
284 1 18.9417 -13.6952 1.80606
593 1 4.65531 -0.435915 0.0976864
899 1 -8.86437 12.7382 28.3838
640 1 21.4213 -14.0287 14.4784
1179 1 9.4497 1.03034 -13.9721
1191 1 7.8607 12.4557 15.2473
104 1 7.29198 -0.577935 13.2037
1165 1 10.8523 12.1226 0.54987
354 1 -1.99393 12.7202 14.2933
1875 1 24.6308 -1.27255 1.64768
246 1 -3.16951 12.114 -14.2175
1747 1 12.0747 14.6821 0.949349
928 1 -1.53663 -1.20309 16.574
508 1 12.2882 12.6258 15.6089
1369 1 -0.0449968 11.2599 -0.227752
1263 1 12.5058 13.4627 1.23884
1198 1 0.167623 25.9295 0.0950855
330 1 13.1358 1.82203 2.1151
1405 1 14.7061 14.3863 2.70051
1599 1 15.5952 14.9729 16.078
1459 1 0.854414 -12.5877 17.5099
984 1 -11.4124 15.9764 3.00147
1154 1 3.60492 14.606 14.9788
482 1 3.46319 15.3787 2.51661
926 1 19.8097 15.4406 2.1417
822 1 -8.27874 14.6676 2.31344
2007 1 -6.51588 1.19482 15.5737
2038 1 7.93285 14.8853 13.8146
1251 1 -7.04278 16.3794 14.024
534 1 -5.64448 2.49687 2.07527
1783 1 22.2826 0.0136965 16.9032
302 1 -4.07993 -0.0144276 2.7249
1130 1 8.52336 -0.301291 1.41761
851 1 8.36808 15.1975 1.83529
895 1 24.1499 0.827096 3.00394
1564 1 12.8515 -0.291548 16.0169
242 1 11.7358 -0.315497 -11.3951
890 1 -1.4329 1.63308 2.6646
1256 1 -14.2188 14.8164 13.7838
896 1 -0.937119 -1.3431 14.7373
1626 1 12.5027 -13.9054 16.9434
832 1 12.1451 14.3287 1.91843
195 1 -14.3003 0.618982 1.22086
785 1 13.4864 -11.0457 1.45971
1347 1 0.214601 1.36831 1.43722
447 1 28.3826 2.0053 3.1354
1329 1 2.19778 3.11845 14.4715
1591 1 2.95302 1.73054 3.52352
345 1 18.3091 14.87 1.40532
1792 1 4.89047 17.0055 18.738
1892 1 4.38755 2.29597 30.274
1012 1 5.92121 17.0497 3.33411
561 1 5.12828 2.07188 1.92358
483 1 5.92998 3.36046 2.20226
979 1 20.2223 16.1813 16.6346
187 1 7.07088 1.86095 -0.0679663
985 1 20.5803 2.42679 15.4739
1947 1 7.51967 1.86747 16.633
922 1 7.89191 2.65972 17.3314
1044 1 8.37982 3.32616 16.3258
531 1 9.38631 2.20509 2.14085
1651 1 9.48058 2.50867 17.0819
1793 1 11.7628 2.92061 14.9588
826 1 10.3622 2.40739 16.0618
2041 1 12.9016 1.63697 14.7361
1528 1 -2.27219 14.9661 15.9589
1744 1 -3.13643 2.67417 17.6527
567 1 -1.70592 1.80789 1.56241
1375 1 12.5237 -10.9209 1.94953
620 1 13.2105 2.13618 16.8755
1977 1 3.85515 16.7534 29.5482
710 1 0.599046 17.2151 2.16625
1573 1 0.678504 3.45714 1.1678
1933 1 1.68413 3.17601 17.3571
1241 1 13.3376 16.6719 16.2042
1496 1 15.31 3.10977 16.0722
1021 1 15.0588 18.085 2.10823
1412 1 5.00977 16.7853 16.3246
240 1 17.8397 17.4487 16.6411
915 1 4.18989 3.85546 1.45807
955 1 3.00651 3.41042 -10.5636
287 1 19.3935 5.30705 1.55734
2004 1 -7.86688 -9.16477 13.8454
1036 1 4.77457 4.84012 15.098
74 1 -7.86717 2.65464 15.2085
237 1 5.80635 4.75746 -11.3514
194 1 -6.33122 4.8956 17.0249
425 1 8.9757 4.2867 -10.9662
144 1 -4.96371 4.83135 3.60947
1009 1 10.8897 16.9698 15.4952
1028 1 -2.49937 3.16724 16.7634
782 1 9.91301 3.63549 17.7155
1965 1 9.49279 16.9097 16.231
1252 1 -2.19106 16.1184 15.9416
1071 1 26.5491 3.3967 14.6314
1002 1 11.7979 17.2718 15.7961
949 1 -0.855792 3.94423 1.95856
219 1 13.8546 19.1081 2.38477
1860 1 0.669246 18.4787 16.872
658 1 0.301659 4.49274 1.61226
150 1 2.48858 6.35843 -9.56225
2011 1 15.6979 18.599 16.464
805 1 15.8127 6.21849 2.27932
1315 1 -10.8105 4.30308 5.06386
1607 1 3.28896 5.78778 29.5602
903 1 4.24751 5.7004 15.5528
509 1 19.3654 19.9223 -0.528578
661 1 5.35259 19.375 2.42096
1136 1 6.61623 5.69437 3.33539
1319 1 7.05094 -8.35186 4.38198
1289 1 -6.33143 -7.07841 1.9603
2017 1 -5.10077 18.4243 15.467
1921 1 -6.02618 6.26285 17.2208
702 1 23.6988 31.5602 2.19492
1967 1 10.7969 18.8896 1.79892
225 1 -16.8301 -8.62867 3.07507
573 1 22.2326 -8.55541 13.9439
1451 1 11.932 6.0902 3.23884
1522 1 12.4148 17.7183 2.93448
1847 1 14.5656 5.71743 16.9071
1777 1 14.5021 20.462 16.2742
1365 1 13.5689 6.30839 3.16057
717 1 17.0963 19.5961 14.3094
532 1 17.2917 7.34809 4.05337
1276 1 1.10025 -7.31635 -12.172
1951 1 18.3842 6.79469 15.9224
1060 1 -9.69127 7.10661 0.638556
108 1 3.70272 6.44449 16.6424
152 1 4.49553 6.22088 0.924278
1180 1 19.3613 7.22865 15.4378
1845 1 5.11379 7.57784 16.5815
223 1 7.9118 19.2014 -10.996
810 1 6.67565 6.93916 2.77072
1562 1 21.5789 -8.04705 15.2138
1314 1 -5.07679 7.17997 1.77642
229 1 -4.41063 19.5182 -11.602
362 1 9.56339 -8.28673 0.373255
149 1 -4.7248 5.90724 -12.6269
1148 1 11.3244 21.4584 3.25464
828 1 11.8927 6.30246 1.47576
1086 1 10.7184 -4.66704 2.05642
1449 1 -4.12175 4.91431 1.45269
1797 1 10.8387 -7.04845 15.4456
1583 1 -1.07138 20.4587 16.1084
1279 1 -0.994986 34.6574 1.1131
351 1 14.2707 -5.9633 3.07886
205 1 -12.1176 20.3136 3.62352
268 1 15.9545 -4.63179 2.96455
844 1 1.83682 -6.2724 15.8658
581 1 3.98823 7.50219 16.4554
1811 1 5.23931 -3.28132 3.79123
866 1 -8.61919 -4.50313 0.942603
1429 1 5.08952 -5.25489 1.70164
663 1 7.22925 -4.26501 29.1126
1302 1 20.323 8.54493 1.66238
1147 1 -5.88856 8.18283 13.9417
371 1 -7.46933 8.80579 3.30587
8 1 -6.65237 10.7659 3.10605
1027 1 7.74477 8.50519 1.28832
2044 1 7.67167 21.2945 2.05247
1476 1 -5.6796 22.3644 2.29692
1654 1 9.54418 6.84686 1.47223
1707 1 9.13513 7.93883 14.7341
1597 1 10.896 -3.56424 2.11442
1089 1 -3.21118 8.26757 16.5028
958 1 11.1492 8.63499 0.596953
1456 1 12.4562 8.65649 15.8804
1495 1 12.0547 23.1124 -10.8537
685 1 -0.463023 8.02958 2.59478
1882 1 29.4422 10.6762 15.9168
101 1 13.9158 8.97124 -9.33172
1284 1 1.34511 -3.94878 3.78596
1782 1 3.09973 22.2643 14.6568
1260 1 1.65806 9.92915 14.5061
307 1 4.27523 -3.51881 15.3414
1829 1 3.23018 -4.13521 3.3746
765 1 5.8141 9.748 16.772
2012 1 19.9175 -3.07149 1.52331
740 1 -7.80867 10.7981 16.3432
934 1 8.6076 9.48298 1.71138
639 1 6.774 11.2343 2.01996
1184 1 9.24793 -4.66088 3.58565
2023 1 -4.56197 10.9481 1.41386
275 1 12.841 9.51014 1.24948
1509 1 11.5771 10.266 3.18448
868 1 -3.00374 -2.32834 15.0832
309 1 13.1043 -4.31934 2.48096
113 1 11.8738 10.4435 15.9689
272 1 -2.01304 -2.16208 2.15558
1128 1 13.7798 -4.09739 17.0674
1458 1 3.15623 10.7992 16.635
1542 1 2.26208 -2.0804 2.75615
1555 1 14.7331 -4.94552 3.54965
321 1 3.39635 -1.95469 2.7902
870 1 -13.3551 12.1796 14.9206
259 1 -11.6658 11.5615 -9.89751
1822 1 16.5004 -1.01332 16.2151
1080 1 4.97812 -3.57377 16.1298
950 1 4.19543 10.8764 -10.4666
294 1 -9.81207 12.6024 16.2163
854 1 5.63889 -0.843913 3.08728
1849 1 5.55441 -1.96955 3.33846
1704 1 6.36578 -1.71113 16.4374
743 1 -6.28494 12.1325 0.507328
384 1 -6.81479 12.2816 1.53645
1150 1 8.12052 10.5079 1.24449
1442 1 6.86177 11.4386 17.7708
200 1 -5.77932 11.4197 1.64722
1532 1 10.8183 9.55761 14.8311
454 1 -4.74216 23.8937 0.775944
1790 1 8.72503 13.1359 13.9347
498 1 11.8141 23.3123 0.501433
865 1 -2.92912 11.0677 16.1507
1540 1 -1.16365 -2.24847 17.3106
1943 1 -3.86232 -2.13075 14.578
1883 1 14.0731 11.1494 15.7139
538 1 -0.458256 25.8541 2.19567
1861 1 14.7479 12.7803 15.4796
2026 1 0.166445 0.357687 15.921
179 1 13.6782 14.8957 3.11949
439 1 2.00089 12.3245 1.98826
1209 1 -0.129965 0.132875 3.38593
456 1 3.72432 14.3493 3.00144
597 1 18.0568 0.281485 2.33157
1440 1 17.0451 12.579 1.60905
924 1 6.17882 0.380735 2.72593
737 1 -9.3893 12.0007 16.9864
935 1 20.289 13.6334 1.65752
1217 1 -6.02703 13.4993 3.25243
1232 1 8.53368 25.7986 14.5877
1753 1 7.54127 13.4018 2.15119
385 1 -5.83857 25.7766 2.65736
1608 1 -3.02432 -0.497796 14.6112
758 1 9.1747 10.2175 3.73553
845 1 10.699 12.6885 4.40581
436 1 -2.01993 14.314 2.99964
1784 1 10.9697 25.7563 3.46367
1258 1 -13.9609 13.0358 1.38733
1843 1 13.2446 11.486 14.971
1534 1 0.0797056 14.9765 4.71309
1278 1 -0.692775 15.1989 4.14709
112 1 0.809249 2.73975 4.21568
735 1 1.57779 2.06436 4.14483
1104 1 18.2217 1.60487 -9.95948
1473 1 18.0587 28.6685 2.46998
1836 1 17.0526 -0.0558043 4.7106
520 1 3.57083 -11.98 4.46579
1646 1 2.46829 -13.3528 -10.7509
1640 1 19.1465 1.99722 3.03577
462 1 4.94949 14.191 3.3456
243 1 6.50661 1.34145 -9.24678
196 1 -18.8845 1.41434 -8.24509
891 1 22.3309 15.7198 16.5588
1998 1 -5.31709 1.20752 17.5559
227 1 -4.78571 14.4575 18.4923
1961 1 9.90942 0.836312 18.0038
1634 1 -3.78975 15.4004 16.674
602 1 11.09 0.855422 3.88586
2010 1 9.80221 12.736 2.1829
341 1 -1.0531 0.939986 -10.3321
815 1 0.320262 1.9657 3.90476
1590 1 0.632629 -10.7512 2.99413
1295 1 14.7911 3.85733 16.6617
213 1 14.3378 2.47163 -11.6326
703 1 16.2043 -11.9581 4.48353
1772 1 2.91968 2.87292 4.08112
43 1 4.20718 4.54666 3.58498
1223 1 3.92806 2.429 3.79428
691 1 7.33989 1.83242 4.01448
839 1 4.65978 3.48448 3.77683
216 1 6.0698 16.0835 3.92794
59 1 7.63626 15.2002 -7.55568
1030 1 7.86331 3.39419 4.63679
942 1 8.05678 2.21665 4.78927
980 1 8.79923 16.9841 -10.1655
1015 1 -4.84355 15.7916 4.09548
1627 1 9.90336 -11.9298 3.99151
452 1 9.43461 15.4332 4.9627
941 1 9.31428 0.870383 3.45165
67 1 -3.18393 14.6533 5.4593
488 1 -1.10301 13.7326 5.13317
966 1 -3.23249 15.7191 4.99811
1117 1 -1.17373 2.99908 4.2519
1839 1 13.1833 -10.4673 17.2561
690 1 11.9197 1.71421 -9.78111
181 1 13.5823 17.9547 2.52825
720 1 -0.105608 3.31931 4.53906
665 1 15.7186 16.693 18.3683
1158 1 29.5663 4.12947 3.63545
82 1 4.17234 -9.01738 2.39518
2020 1 2.66197 18.8322 17.6096
248 1 17.2189 17.4072 3.95822
734 1 3.10693 4.58026 2.8483
1265 1 4.82761 18.9997 16.8948
876 1 5.60698 33.3905 3.61209
799 1 5.29599 4.31916 3.42956
1032 1 -8.77412 5.61741 4.26564
1809 1 6.96816 -9.61682 5.15399
1568 1 7.05115 3.46583 17.5381
1127 1 -6.32091 3.04866 2.8613
413 1 20.4209 4.39751 4.07561
1816 1 22.457 5.60835 4.87353
166 1 -5.7947 -9.69622 17.0831
1430 1 21.9738 18.0224 5.24828
1433 1 8.88124 4.00393 17.9921
1313 1 -3.93408 18.1692 3.35768
1338 1 10.3469 1.74157 6.01236
862 1 9.6427 -8.14146 2.98415
102 1 -1.55405 16.4788 -10.6056
2 1 -1.84648 18.6756 4.0048
1985 1 -3.14194 4.49143 17.8556
1132 1 -1.16271 17.6086 -8.28348
1435 1 -1.37291 17.7103 4.31705
1397 1 13.2077 6.86623 18.446
1112 1 0.356664 4.59528 4.75971
1648 1 15.1037 4.95682 17.5545
77 1 1.09116 3.96472 4.36538
1664 1 16.7798 20.733 -11.3097
1118 1 1.94459 5.81934 17.0223
139 1 17.4257 19.6584 -9.26384
1323 1 3.62546 5.53263 3.47192
109 1 18.5068 -7.28116 5.12745
759 1 5.81715 6.25605 18.3713
128 1 20.0836 5.15196 5.19898
813 1 -6.37114 7.22852 4.54516
697 1 20.5807 6.28643 4.53916
1222 1 5.90345 4.99386 17.9105
1272 1 7.81218 4.50349 4.3233
1561 1 -4.87599 5.86832 17.2321
1588 1 -3.32652 -8.18269 4.11072
1612 1 -3.56208 5.16877 19.2228
1543 1 -3.36835 -10.0555 3.07565
193 1 -1.96338 6.45534 -9.46565
1427 1 -2.59069 4.37568 2.41927
271 1 -3.18858 6.00954 -11.0555
1741 1 0.349551 5.87044 4.51731
1692 1 13.1904 18.12 17.3058
1789 1 -0.91258 5.29739 16.7008
1859 1 0.843869 5.60592 19.2133
773 1 12.9247 6.35024 5.61891
1022 1 26.7801 -6.27169 3.72069
1017 1 1.4339 19.6802 4.74308
1324 1 0.655786 6.71613 -8.52095
332 1 1.18032 7.45283 4.68486
1352 1 0.592633 6.96118 3.89225
1862 1 16.9168 21.6732 18.5918
1096 1 16.3058 7.01064 3.28284
1979 1 4.49472 7.88626 17.3908
1690 1 4.52245 6.73335 4.12181
5 1 4.7816 -7.2202 -10.4625
820 1 6.44361 6.83732 17.3969
1508 1 6.33062 7.40538 4.68639
492 1 7.4139 35.0279 3.10263
711 1 5.94254 8.12305 2.32211
1527 1 8.15238 6.60858 2.58873
1163 1 -4.29774 6.73418 -11.0971
679 1 9.88455 6.36638 3.58707
441 1 10.3979 7.08495 -11.0899
62 1 11.5785 6.63548 2.43376
564 1 -2.92638 8.01566 1.88337
380 1 12.1566 -6.59026 3.4983
1969 1 11.9944 7.62853 16.0051
849 1 12.2908 -5.53053 3.08147
1941 1 -1.76499 9.34826 4.82633
886 1 11.6001 8.50035 -12.2376
678 1 13.8356 7.92243 17.8534
1439 1 26.5658 9.25658 18.0852
689 1 1.55613 8.31839 4.32319
1974 1 15.7254 6.75988 18.8132
853 1 16.0619 -6.34598 4.36002
684 1 15.2552 21.3033 3.31689
1113 1 3.03088 21.2728 15.1272
542 1 4.19077 -4.53225 2.32896
1301 1 17.81 7.28375 5.02165
1672 1 5.18229 9.0319 3.94948
280 1 5.94609 9.55505 1.90878
98 1 -7.49532 -4.26818 4.18926
1516 1 7.19196 8.77246 2.82644
249 1 6.14212 21.3656 3.27707
295 1 -5.25712 7.78599 2.80561
255 1 9.50855 7.87913 3.14767
893 1 22.6147 -5.64449 4.1393
1781 1 9.43455 21.4232 2.06313
1891 1 -2.70454 9.04861 4.49757
860 1 12.0414 8.88325 3.9003
699 1 13.1815 -4.96179 3.31046
1997 1 -1.42851 7.31042 18.1679
76 1 13.2885 10.2227 4.1521
11 1 2.74793 -3.88542 2.38291
58 1 14.7115 -4.48333 -8.80225
1234 1 4.58442 9.7482 3.33402
1983 1 2.55874 -5.73808 2.74448
1732 1 -11.3905 10.2407 3.19296
1939 1 4.72144 -2.17124 17.9615
1261 1 3.95519 8.71843 3.21113
1321 1 -9.43274 9.96036 5.2664
1367 1 5.26214 8.7446 16.5111
13 1 7.21223 -4.1204 3.44174
1463 1 20.1416 10.5229 4.06598
811 1 7.37538 -18.3795 4.40725
1959 1 -4.34342 23.2102 4.62896
2009 1 -5.41593 8.77706 3.25712
1749 1 10.0044 23.1303 2.87655
916 1 -3.53401 9.67874 3.97573
1480 1 -5.3429 23.3172 17.7573
774 1 11.0066 -4.51448 16.9184
667 1 11.2421 10.0837 4.09176
30 1 12.2493 -17.3783 -23.2942
1801 1 -0.786191 10.318 2.92936
320 1 -3.27403 10.4178 3.25534
54 1 15.0477 11.5748 -11.6841
471 1 1.20058 12.0794 -10.6106
334 1 0.212065 11.9085 3.18704
1632 1 15.6838 -2.979 4.30571
1277 1 14.5925 13.3751 16.7594
1317 1 1.48176 -2.81664 16.9055
1477 1 18.7085 12.6371 15.7727
1804 1 4.31504 -3.43233 17.9576
1259 1 5.08791 11.5829 2.3066
153 1 5.03221 11.8513 -7.97052
1203 1 5.88675 11.2464 4.55387
458 1 -6.0945 10.5506 4.0228
535 1 8.04845 9.62997 2.8627
586 1 7.95448 11.6194 -9.52549
2046 1 8.84256 10.3437 16.1952
440 1 21.4697 10.5225 2.38892
583 1 8.55433 -2.3449 2.44332
1681 1 -16.5307 11.0142 4.12184
557 1 9.74675 -2.0623 -11.6739
644 1 -1.94607 -1.60014 17.8008
621 1 9.92628 -3.17547 1.85195
1267 1 -2.05693 11.3603 -10.4553
1101 1 9.67378 -0.932312 3.83152
739 1 0.0919867 25.0953 4.08408
1114 1 -0.805426 -2.73493 2.14807
10 1 13.8917 12.8177 2.29838
673 1 13.9176 12.8039 3.92078
1287 1 -0.756001 -0.678785 4.5229
536 1 1.78654 13.7955 3.77793
1078 1 16.5691 13.5202 3.65013
940 1 -13.1711 0.0634626 4.29512
105 1 2.08777 -0.980193 3.51584
1358 1 -11.5784 -0.424491 2.21654
525 1 2.94609 -1.49568 3.68343
2015 1 20.2997 12.904 2.42991
1303 1 19.8852 14.2122 3.80132
1559 1 4.15405 0.470178 17.9517
1600 1 4.73222 -0.588413 16.5755
718 1 5.52644 13.0443 19.0803
1065 1 -7.33998 1.33063 3.06811
2016 1 7.20765 14.5198 17.167
1215 1 20.3523 13.4074 3.54031
1906 1 -5.20895 -0.795725 3.88597
1685 1 8.39126 26.7435 16.1414
1499 1 34.9799 0.258035 18.0701
437 1 9.37073 -0.861538 1.18301
1406 1 23.8779 11.771 4.30201
1460 1 23.6593 11.4997 16.8645
1725 1 8.98967 -13.5558 4.14817
1026 1 -16.2733 1.81661 3.29909
1466 1 10.8653 -0.589996 16.3689
939 1 11.5913 12.9381 4.70239
1454 1 12.9444 12.4792 17.3401
1828 1 -0.0144505 16.0382 5.10762
692 1 0.337135 0.112113 5.31529
165 1 1.79953 14.5902 -9.19299
622 1 13.1406 14.0788 4.35196
1666 1 1.61722 27.8715 19.5947
81 1 1.80132 1.34395 3.44129
1478 1 3.47803 13.3319 19.663
1392 1 5.64635 1.54136 18.7148
276 1 -8.18864 1.45226 -9.6727
830 1 6.68024 0.466066 5.85837
1337 1 21.0915 1.31325 7.12286
331 1 8.63974 -0.459805 -8.45331
1932 1 9.07785 0.96016 16.0557
279 1 22.3004 -12.5295 6.45056
858 1 7.59568 14.8013 4.88087
786 1 23.061 -13.092 -6.83324
1736 1 8.34345 12.8468 20.1542
1045 1 10.2623 0.0969825 6.33464
239 1 10.0451 12.2207 5.34447
310 1 10.1212 13.6772 3.7656
156 1 25.7265 13.1411 5.74987
1350 1 -13.5086 -1.26056 18.6639
19 1 -2.27952 -0.534114 3.65722
650 1 -1.65337 14.1917 4.22761
1052 1 13.9739 15.1733 5.70843
2024 1 -2.32657 13.9911 19.0955
1515 1 0.492845 14.2651 6.33337
390 1 0.984478 1.88964 5.05772
1638 1 2.32962 15.9665 19.1577
12 1 2.69321 14.5145 3.99704
563 1 2.86021 0.900232 5.16297
1333 1 18.6691 -11.1682 17.611
675 1 3.34686 15.3116 -7.17373
1299 1 3.39557 2.03389 19.0473
1327 1 4.59966 2.15689 4.80986
1514 1 4.60011 0.550423 7.82751
1474 1 4.41184 29.7519 5.96554
592 1 -9.75986 2.91372 -8.99928
134 1 7.0319 16.1616 -8.88415
1872 1 -5.93849 2.60768 5.7605
997 1 8.85434 29.6984 6.10938
1255 1 -5.47735 2.54647 20.58
1846 1 8.93598 3.55784 5.51113
1930 1 9.41029 3.39366 6.52368
133 1 -2.56776 14.6013 6.47988
363 1 10.3633 1.14225 7.15957
1708 1 -4.19196 14.8721 5.97757
784 1 11.3742 2.31641 -8.93719
637 1 -2.25014 1.26773 5.00981
1526 1 -2.13989 3.26506 17.7253
1524 1 14.5854 16.6743 5.21765
457 1 -1.25831 15.6889 -8.64214
1063 1 14.5906 4.47956 5.6272
464 1 1.83294 17.4374 5.44513
1791 1 27.6675 17.5077 3.547
490 1 -0.288582 19.0563 -21.7897
700 1 16.6146 3.18184 5.15398
1712 1 3.6213 16.3791 6.54082
1348 1 3.9686 3.46245 5.72926
1949 1 17.2092 4.9654 4.49001
1533 1 18.4374 18.9281 19.6002
526 1 4.31745 4.27801 4.59256
36 1 5.2542 4.94792 5.00815
1762 1 -7.45534 16.9068 -9.13008
1400 1 18.3842 4.19785 5.56636
1586 1 -7.89799 3.92928 19.0189
1207 1 8.01389 6.48144 18.5392
211 1 -8.29237 3.90986 -9.35216
1770 1 8.90087 5.12126 5.91453
875 1 7.36904 3.55532 6.01626
1190 1 9.82199 4.06112 18.6685
1786 1 22.5762 16.6919 18.3185
797 1 10.635 3.25886 -8.68154
753 1 12.3788 19.5771 4.79651
70 1 -2.11979 3.23236 5.54663
736 1 -0.958614 16.6007 -8.10092
357 1 13.3992 5.24758 4.12438
355 1 -0.935217 4.55261 6.3188
317 1 1.97974 -7.88289 5.67293
1035 1 2.31268 4.83323 5.81321
1059 1 0.144155 -7.60279 6.33077
1007 1 -0.542519 6.51412 -6.5709
821 1 1.22032 19.7673 6.52439
1042 1 2.84121 -8.30289 5.12479
97 1 3.69906 4.61109 5.56549
417 1 -9.92325 19.2575 6.63012
342 1 15.1777 -6.95552 7.27884
1320 1 3.78674 5.64856 5.5941
1877 1 3.77941 6.79759 19.5341
1991 1 4.2077 18.3268 6.52587
1001 1 5.10577 7.14303 5.84714
879 1 5.62973 6.08196 5.7726
1453 1 -7.43452 6.95951 5.60176
127 1 5.59532 20.4547 -6.15101
1643 1 6.9152 -8.94452 6.20715
1743 1 6.97163 19.7321 5.53234
1571 1 8.90783 -6.82326 18.5967
1659 1 8.14385 7.13204 3.59984
41 1 -3.3992 -7.40037 5.19091
1488 1 -2.07319 4.20853 3.44097
476 1 9.38375 4.80668 4.35272
300 1 -3.63881 6.05519 -7.423
51 1 -2.71575 6.6082 -10.2412
1737 1 -2.48357 5.33505 5.06225
511 1 12.1337 4.9243 -8.7171
1960 1 -2.20582 20.2485 5.25635
806 1 -1.31121 5.44141 5.77824
742 1 -2.47883 5.99005 -7.61019
1039 1 11.7386 6.98502 19.8355
1484 1 1.85436 6.87291 6.21914
426 1 0.119119 21.2129 5.42699
1266 1 3.19656 6.64512 5.07744
666 1 2.70909 6.14467 -7.42294
1668 1 -8.19639 8.31306 6.4213
848 1 6.84464 8.05434 17.5988
1040 1 5.29979 -6.05606 4.27734
1794 1 6.48387 -5.72486 5.81714
693 1 7.58379 -6.44734 -8.00193
698 1 34.5863 21.8774 5.10354
554 1 21.5263 -5.6443 4.0186
1975 1 23.2215 20.642 6.4446
1142 1 -3.97416 -6.57965 5.4561
484 1 -2.24783 8.18288 4.28641
1389 1 -16.3117 20.8642 -9.13093
1647 1 11.7537 7.86447 5.19955
1211 1 26.47 6.21681 17.5402
1144 1 1.55649 -5.70241 6.13148
504 1 27.1655 8.64351 5.28748
766 1 14.598 21.9344 5.36106
1000 1 2.00924 21.5214 18.9097
1205 1 3.09543 8.4297 17.5912
777 1 2.00362 -4.71733 5.00516
750 1 2.86251 7.37877 5.74719
340 1 4.31182 8.18486 4.64459
981 1 31.2597 8.84823 -8.26262
648 1 4.80405 -4.54793 5.02287
2008 1 6.03882 9.21901 6.31636
570 1 19.3841 8.38976 4.77192
1673 1 5.41154 -3.50539 5.90221
407 1 6.85482 9.1559 7.12205
119 1 6.71947 9.07147 -8.45735
1363 1 -7.32095 -5.40313 6.98907
22 1 5.8487 -6.3539 6.61252
1229 1 8.01209 7.83467 6.33793
547 1 -5.78061 -4.86035 5.52048
1371 1 -3.93217 -5.75289 4.89695
1622 1 -3.29631 7.50923 17.4269
386 1 -16.5715 -5.73372 5.28585
1830 1 12.656 -5.47576 18.4024
1530 1 10.2742 22.2088 3.90765
489 1 -2.19803 8.73155 5.50276
1345 1 -1.04373 -6.25231 19.0844
1746 1 13.8747 7.00953 7.58378
2005 1 13.3504 -5.56845 6.26409
654 1 -1.04695 22.7569 -8.0632
1396 1 15.5489 9.77264 19.9617
1926 1 -12.6174 8.91133 19.8188
1436 1 14.882 9.74884 20.7264
1210 1 13.7688 9.02637 7.05657
1670 1 2.22954 10.2035 5.23298
1360 1 2.58146 -4.20067 4.18453
308 1 3.19368 10.234 4.2916
1519 1 3.51669 23.1865 19.8625
706 1 3.83747 9.24375 -9.38148
823 1 5.45699 12.2997 4.53421
1249 1 4.95964 24.586 5.03731
751 1 19.0968 9.95059 4.82919
943 1 -6.20191 7.83673 -6.43262
96 1 21.1639 9.57427 6.12884
1750 1 21.5949 8.83376 6.7881
1928 1 -5.20702 9.80384 5.2305
1656 1 8.57278 -4.26055 6.19734
1871 1 8.74838 -3.06734 19.409
668 1 9.48618 7.24729 4.16707
752 1 -3.04254 9.78749 5.08873
1200 1 9.71956 -4.90074 6.45672
1763 1 -4.31637 11.2024 4.14411
595 1 24.5154 10.4675 19.6911
1538 1 10.248 8.87089 18.8697
283 1 25.443 9.59296 5.90433
516 1 12.5425 -17.2341 -8.5269
451 1 -0.130534 -4.3713 6.02533
1796 1 0.576033 10.5273 4.4666
1422 1 0.964356 9.8482 19.4516
1944 1 15.2225 10.8167 6.28006
962 1 15.0819 11.0213 5.23197
1993 1 -10.9549 11.275 4.87044
1775 1 17.3907 11.0904 17.7494
1452 1 17.4544 11.3229 5.05921
1196 1 2.23868 12.0653 4.63195
1767 1 6.62661 12.9773 19.3513
28 1 6.16518 12.0513 5.30252
519 1 2.91654 -1.41012 5.43556
1300 1 7.64958 -3.25955 5.00901
126 1 21.2189 -1.35526 5.87205
472 1 6.32861 12.3862 3.84545
1757 1 6.883 -1.29824 4.65035
1462 1 8.42084 10.8813 -10.2368
932 1 -6.68763 11.369 5.51597
424 1 -5.07502 10.6026 4.61302
433 1 -4.70172 12.1946 3.30297
405 1 -3.68065 10.3492 -8.92865
84 1 11.5313 -3.39166 5.05587
428 1 -1.64965 11.0958 4.52129
1271 1 12.5467 9.57508 20.5363
1995 1 -1.87397 11.2322 5.73048
368 1 12.8795 11.8548 4.66141
539 1 15.0578 -1.58487 -8.42155
1159 1 0.873448 -15.3773 4.22303
1869 1 13.1255 24.5952 18.6188
1421 1 0.402757 13.0332 6.46491
1290 1 -0.0636204 -3.42546 5.54815
1115 1 2.08282 -1.11112 19.7862
1619 1 1.32005 -0.726872 4.67836
224 1 3.77313 13.023 3.77852
1863 1 18.3489 -0.421692 31.8941
528 1 3.8186 12.2549 4.53174
974 1 2.75855 12.9067 4.40727
796 1 2.3395 -13.7768 5.18478
1504 1 17.7465 0.345759 5.41763
779 1 5.84716 -0.474589 -9.3587
1479 1 -8.39562 27.825 4.32934
86 1 34.8004 -14.7758 3.83534
415 1 21.1644 13.4914 5.54079
160 1 22.9286 12.1612 4.55318
1768 1 -5.48889 12.3518 18.629
184 1 9.68753 14.0134 5.42531
1851 1 -2.47573 -1.80387 4.99809
453 1 -16.4496 12.9693 5.41003
1805 1 24.4501 0.0378605 4.54226
1336 1 0.488008 -1.58439 6.07607
17 1 -1.55092 -1.52071 5.39041
1376 1 -0.492094 -1.90119 5.65504
1751 1 13.6849 28.7736 6.73094
94 1 14.1834 27.4372 7.30111
1088 1 0.990027 14.9057 7.34867
1604 1 4.11762 14.9863 7.01021
708 1 -9.41534 0.336127 6.78372
1616 1 4.05061 -0.32965 7.85739
1062 1 4.66291 1.04282 4.89641
1092 1 -8.9056 1.48356 19.6688
791 1 6.78708 1.54919 19.0642
1536 1 3.80884 16.8835 7.49967
513 1 18.9954 -13.1132 6.51643
1416 1 7.66493 14.1095 6.47222
1833 1 5.91742 14.8722 19.7339
80 1 -5.23381 13.6421 7.23652
1727 1 9.49091 -0.594592 6.27926
176 1 -3.24423 12.5968 6.22697
1481 1 -2.68032 13.8172 7.73874
1946 1 37.7458 12.0947 7.22429
381 1 12.0132 -0.114535 -6.01292
861 1 13.007 -0.355792 -6.9342
313 1 24.9627 12.0969 6.17788
1366 1 13.2125 14.2774 5.78781
1715 1 -0.679085 0.666265 6.85886
847 1 -1.66847 0.487626 6.47448
180 1 1.60636 1.99021 -5.81412
990 1 15.2938 16.5164 -7.66805
370 1 15.9201 16.5277 8.18615
781 1 15.1384 -11.9918 6.04879
1008 1 12.9366 15.3804 5.96985
282 1 2.09215 -10.6866 -6.56334
1999 1 16.021 2.07253 20.1522
1935 1 15.6781 14.5336 21.8025
372 1 -8.83402 16.1622 -6.60305
140 1 19.0446 28.8609 7.07756
579 1 19.1936 2.53683 4.85208
1678 1 -8.13391 2.30017 6.22636
1361 1 6.26513 -11.7961 7.27843
339 1 10.0177 16.1565 6.75798
670 1 9.90219 2.75715 -7.93565
657 1 -4.58413 15.6008 7.41376
1810 1 11.0647 2.10238 20.6524
575 1 10.514 1.53363 21.8796
755 1 10.5275 3.76967 5.85214
1964 1 10.5203 2.56169 21.3991
1650 1 11.4049 14.9254 7.60837
615 1 -1.26601 2.54689 6.41102
887 1 25.9496 1.42453 -6.8755
1936 1 -1.74742 1.63625 19.5269
305 1 12.5083 1.07523 -8.65394
277 1 13.6323 2.57251 7.08433
829 1 14.9306 15.981 6.94282
141 1 2.6848 17.1591 6.0766
1293 1 15.6585 17.6917 6.6596
1381 1 -11.5815 3.81596 21.3671
838 1 5.15474 3.28974 -7.52271
1758 1 17.6162 18.0019 7.55126
61 1 4.33295 3.61739 6.7496
344 1 18.956 -8.50289 7.92105
1394 1 5.23335 -9.11205 20.3201