ITEM: TIMESTEP
165000
ITEM: NUMBER OF ATOMS
2048
ITEM: BOX BOUNDS pp pp pp
0.0000000000000000e+00 1.3679807573413575e+01
0.0000000000000000e+00 1.3679807573413575e+01
0.0000000000000000e+00 1.3679807573413575e+01
ITEM: ATOMS id type xu yu zu
1839 1 13.1329 -13.7995 14.5787
1013 1 27.1747 29.6759 0.941183
245 1 1.28272 15.9473 0.119173
106 1 16.7933 0.128521 14.5286
127 1 15.1403 13.0555 -0.131915
1057 1 2.2681 -11.5654 13.6249
1889 1 5.17235 15.0147 13.6225
1618 1 4.11502 2.14601 29.5028
700 1 17.903 1.02584 2.74276
423 1 15.9023 13.5905 2.25968
685 1 -8.81272 13.7724 -0.205271
773 1 6.60696 1.48205 2.40205
1804 1 5.68261 -0.142629 15.1301
2016 1 20.0454 12.7228 28.2037
1480 1 -6.43235 28.0478 16.2025
1247 1 5.36441 15.1408 15.9404
1035 1 7.36481 1.80836 1.16943
1403 1 8.3963 16.3007 13.052
351 1 10.5724 0.271925 15.683
1343 1 8.99543 15.4372 1.65089
1717 1 9.98158 1.25091 15.7504
22 1 -3.56013 -11.35 15.3974
1890 1 11.0945 -11.8154 1.65829
953 1 8.0307 0.368553 0.386179
1682 1 24.2319 14.7742 28.3815
1314 1 -2.50485 13.6929 0.879286
562 1 12.0591 -12.8834 1.55269
1943 1 -2.16933 14.9779 14.3328
1088 1 1.43291 17.967 0.785665
1269 1 1.6864 16.9248 13.5343
824 1 13.0977 3.27164 0.868566
1108 1 17.1054 -11.1303 1.4206
1004 1 0.917216 16.8349 15.1007
32 1 16.9069 -9.43877 0.156566
1426 1 17.9967 14.0245 29.3301
1416 1 17.4551 0.969602 1.32032
704 1 18.3445 2.40305 0.313339
150 1 5.32793 16.0781 -12.4694
1860 1 6.35516 15.7592 15.0804
1153 1 20.7382 -9.80551 1.33604
98 1 -6.36515 2.34888 -0.484208
734 1 -5.91778 3.00575 0.977395
1802 1 9.03197 14.8906 16.2771
67 1 9.11295 16.1973 13.8181
1803 1 7.83862 -10.2167 12.8022
30 1 8.60917 -12.5408 -12.8175
1531 1 -4.56652 3.86717 0.966867
1462 1 -2.82988 2.10812 -13.067
1101 1 12.0559 3.2357 15.2529
1549 1 12.7028 -12.3614 27.6648
139 1 12.9161 17.1249 -11.4335
883 1 9.78587 1.87192 14.3831
212 1 0.568459 -8.79703 -13.1874
1503 1 27.3037 18.7456 15.0943
1161 1 -12.6585 5.49409 27.2047
1497 1 16.6293 2.59248 0.508956
482 1 1.50676 17.6455 1.92646
1530 1 3.79942 29.8197 -0.202297
931 1 17.789 18.4216 -0.437179
1242 1 16.195 4.18021 14.6256
1106 1 -9.61549 3.59054 0.209746
1580 1 33.0008 4.67992 13.011
317 1 4.40548 -10.6238 1.22667
1917 1 6.80162 3.49855 2.55185
489 1 -5.34271 3.95832 1.5886
701 1 19.4509 4.83576 14.5565
1495 1 7.22983 16.9264 -13.6754
679 1 8.60401 18.4794 0.715456
1477 1 19.6641 17.6047 14.7326
375 1 23.2373 4.29968 15.7212
1018 1 8.46261 18.2887 13.1109
1782 1 -6.82408 29.768 29.727
49 1 -2.66557 4.22219 15.5288
281 1 10.1996 16.5086 0.502237
1648 1 9.56996 4.92542 13.9947
1086 1 12.127 4.17604 1.22755
1001 1 -2.0181 5.2949 1.55319
1676 1 -0.707963 3.22942 13.3457
1696 1 25.6283 3.53471 0.436483
10 1 12.7203 2.38704 -13.567
1564 1 14.4793 19.3119 15.0065
1421 1 0.0441088 19.8173 1.76386
843 1 44.3551 5.84307 13.6212
607 1 30.1933 5.11265 0.482416
905 1 3.87112 3.28382 12.8971
849 1 17.5259 -8.58219 0.829179
1807 1 5.22892 -9.53121 13.9396
635 1 31.8509 6.19891 0.567466
1205 1 5.99407 19.1774 13.7167
1758 1 6.5276 31.5943 0.176895
1964 1 6.37329 5.7246 14.7432
75 1 -6.26491 6.83702 1.11495
94 1 20.2203 20.6342 1.74372
1638 1 7.44131 19.4254 14.4904
545 1 -6.67478 18.9172 -0.0241505
468 1 -1.64968 18.7818 -14.281
1616 1 9.30395 5.92745 0.376156
1430 1 23.8625 4.35189 -12.5361
439 1 -2.7564 6.10482 1.77364
939 1 -0.880273 4.13164 -13.4376
1969 1 12.8233 19.4425 13.5872
1605 1 11.2502 20.6046 -12.5261
320 1 -1.66872 6.26589 1.7637
587 1 1.04557 -7.53617 15.9468
1884 1 13.7816 19.5949 14.2351
1000 1 1.26542 21.1321 14.0851
836 1 15.1572 6.26825 0.428509
1315 1 -12.9738 6.70072 0.877963
1386 1 2.89892 -5.72806 15.0635
1465 1 5.13318 -6.71049 14.7042
1736 1 4.00213 21.1571 15.5954
748 1 -9.46803 6.65296 -0.212169
884 1 18.7279 -6.24224 -0.680721
1719 1 18.5146 5.04982 -13.1104
610 1 5.85918 -6.15496 0.568782
159 1 5.54477 20.3317 13.66
101 1 6.47251 6.67994 -12.9482
811 1 19.9397 -19.2975 1.5536
1203 1 6.89342 7.85947 0.710162
735 1 -6.57109 7.13787 13.6609
1712 1 -3.48705 6.79208 1.81183
1755 1 8.21771 34.8409 0.454144
1764 1 -2.78067 18.6772 -12.7821
396 1 9.61058 20.8978 -13.105
1881 1 12.0481 21.1093 14.3577
582 1 -16.0461 6.93611 -11.2943
1093 1 11.5472 -7.7409 16.3623
1434 1 11.1215 -7.92288 -0.121971
1830 1 12.9304 -7.60017 14.7603
411 1 11.9117 -6.2071 1.72261
555 1 13.3818 7.17766 14.4199
1500 1 0.785197 -5.52895 27.071
1383 1 2.03569 10.0666 26.858
1992 1 17.7637 -4.7068 14.8263
465 1 15.5276 22.089 -0.379115
1887 1 14.2957 7.95484 14.6689
475 1 4.82083 7.98973 14.9306
1701 1 2.17045 22.3645 2.02976
727 1 5.19725 -4.66507 1.13894
2043 1 17.2672 9.74347 13.9817
1243 1 4.17897 8.44676 2.16964
1214 1 33.2901 37.3044 -0.533388
335 1 6.19091 -6.28325 -0.51373
1810 1 5.19942 8.50274 15.7546
473 1 5.54206 -4.38415 -29.0607
1591 1 7.49313 -3.36249 13.6937
1355 1 -7.47904 -5.07715 27.9165
510 1 -3.27377 7.99652 2.33081
1300 1 8.99713 -5.96241 14.9363
272 1 -3.75879 -5.51586 0.0715001
397 1 10.1501 7.8285 15.0006
1043 1 -2.10199 -5.5909 -0.0390814
1944 1 12.9971 21.5651 0.0137125
1604 1 12.0495 22.2297 14.5936
720 1 -0.641031 9.43191 14.8087
520 1 -12.2181 -18.7301 0.654815
1369 1 1.28703 9.18565 -0.403825
938 1 16.8019 10.8257 13.0342
733 1 14.9729 9.68716 -11.2731
1364 1 17.2985 -3.67693 -11.727
572 1 -12.2032 9.37258 1.46996
132 1 18.3957 8.80551 13.9087
963 1 -9.40423 9.97137 28.4317
551 1 3.59171 -3.01505 0.555611
1935 1 16.3607 11.7198 27.2991
363 1 5.76661 11.0834 -0.509247
750 1 4.91523 10.3348 -0.436918
1977 1 6.75034 9.56628 27.3869
1599 1 34.7367 9.27242 26.5052
1402 1 21.2651 -2.54834 12.8575
258 1 5.2812 10.2134 -15.0952
1331 1 -4.03111 -4.85556 0.906365
408 1 22.1423 -3.16466 -13.6845
1152 1 9.85594 9.75337 15.043
50 1 9.63944 -4.6573 -0.730022
1347 1 -4.0198 10.6979 1.79972
1827 1 -3.00259 23.5551 15.6002
37 1 -2.44506 9.44409 -12.4948
865 1 -3.13871 10.6922 14.8814
997 1 -0.629071 36.4051 0.165617
144 1 -16.1265 9.12057 2.62784
1365 1 12.3766 9.34731 -0.594644
1260 1 -0.112152 10.4015 15.3109
1192 1 29.6372 11.3534 15.7129
525 1 1.67042 10.95 0.309732
661 1 0.478914 23.284 1.41207
1188 1 -11.9511 -1.63183 13.1483
1055 1 4.60495 -2.73731 -13.2686
1594 1 17.6067 -1.99377 0.0187457
17 1 -8.9725 -1.61 14.4957
1189 1 -11.0758 -3.36583 14.0081
1342 1 19.5729 -1.2003 27.401
1208 1 20.8736 11.4857 13.8412
1987 1 -4.65244 11.2459 14.354
1064 1 7.15075 11.9363 1.41475
1615 1 -4.57574 -4.02628 13.6602
1726 1 -4.49169 39.1631 28.9182
370 1 11.8586 26.0328 1.7814
920 1 10.1938 11.631 0.23045
901 1 11.1895 12.0906 0.750171
539 1 10.8281 11.6603 -11.9513
54 1 14.056 9.30784 -13.6641
458 1 -0.906672 24.8434 1.35361
328 1 0.841283 -3.20878 14.4796
1865 1 2.07505 12.0207 1.29772
573 1 29.4419 -14.224 1.26377
188 1 3.08787 11.9778 15.7592
523 1 15.3681 12.037 27.8118
1957 1 4.11285 -0.794844 1.43477
404 1 3.12555 12.3746 14.6719
688 1 5.04386 13.1576 0.730075
857 1 17.3244 -14.4112 12.3426
1769 1 4.43285 26.4791 13.1818
285 1 19.8235 -13.634 0.391943
1859 1 6.20962 14.1591 16.1992
331 1 7.34681 12.418 -13.5523
1526 1 -7.63298 -0.461808 26.6936
1207 1 7.33716 0.688007 28.7316
695 1 22.7245 13.7408 2.41779
1931 1 -18.9176 13.2432 14.6175
1617 1 7.35177 -0.715264 28.8055
1569 1 8.86368 -1.43267 27.5308
1483 1 -3.13535 26.1993 40.9791
1837 1 -4.25029 -14.5498 28.3818
1264 1 22.7597 27.053 13.8077
1174 1 10.6145 -0.898806 14.846
664 1 11.5684 26.3469 -13.6431
681 1 9.66057 -13.4137 1.4946
1273 1 0.0271165 -1.09735 1.04223
412 1 27.6548 -1.08881 -11.2365
1357 1 -1.31544 12.5597 0.78037
70 1 -0.369576 0.92522 1.11356
1507 1 1.13361 12.7224 14.7156
1363 1 -13.9937 -12.1164 2.06173
1305 1 -12.4429 1.6185 2.79489
1945 1 16.0581 0.632368 1.50474
1709 1 15.0855 0.656373 -11.9968
1334 1 15.8977 0.942483 17.0554
978 1 18.9468 28.3909 3.21998
932 1 -6.79681 15.0129 4.82987
1798 1 6.19647 -13.834 17.8552
558 1 8.21163 13.9075 16.9693
238 1 7.55815 0.750621 17.8745
1843 1 20.7942 -0.364305 16.514
1262 1 -6.25277 -0.533485 17.5467
216 1 9.85103 15.149 3.37603
848 1 -5.12505 -14.5842 31.4673
1003 1 8.53699 27.3978 18.1603
1901 1 9.47748 14.258 31.481
310 1 -2.79946 12.7758 2.13969
1825 1 -16.9386 -0.39487 3.95276
1663 1 24.7097 1.74962 -9.57442
800 1 -1.35297 1.384 2.4128
1279 1 0.41281 28.3518 15.6714
234 1 -1.05096 16.1831 1.95086
1201 1 12.4061 15.5443 -10.2582
1309 1 13.7324 0.708314 17.9023
264 1 13.2679 15.0439 3.16167
449 1 -0.0361289 2.9003 15.4121
44 1 1.59534 2.89668 2.28315
1146 1 1.90626 16.4762 14.6183
718 1 1.24896 16.2278 16.8739
305 1 15.8569 2.88386 -9.81784
1450 1 1.65839 1.43914 0.698648
371 1 -10.6069 15.444 2.21531
519 1 4.71798 3.52753 16.0557
280 1 5.9605 16.7867 2.84728
886 1 8.07063 14.7968 -11.642
565 1 6.036 16.7057 1.83744
1398 1 8.96091 3.16165 15.7208
1344 1 21.5041 -11.1935 3.98698
369 1 8.12048 2.61092 15.5039
1812 1 7.68978 -11.4147 16.5902
1458 1 9.6997 16.0863 16.5718
214 1 23.9299 17.1641 1.77014
1476 1 -0.402984 16.6141 3.05831
1183 1 -15.99 -9.9693 16.8681
349 1 11.7036 2.19099 16.2977
898 1 12.1376 15.8588 14.6494
143 1 0.500955 -23.9577 -11.0634
597 1 14.8673 4.34108 3.28812
682 1 0.0671379 4.09098 0.801971
566 1 14.0206 -9.62334 -11.8961
761 1 16.0358 3.49894 2.9467
325 1 15.4298 -8.33611 1.86092
1341 1 30.3053 3.73692 1.9796
1229 1 16.1928 2.73316 1.93125
131 1 3.41255 3.75491 -12.5566
651 1 6.43393 16.4564 -13.0634
1636 1 -9.697 4.0521 1.94077
981 1 32.4666 16.9057 -10.386
1200 1 7.86064 -10.2602 16.0319
1716 1 21.0275 -10.5709 3.34261
1054 1 20.5193 -8.88187 1.02403
1915 1 22.7434 2.82766 1.05513
1071 1 35.855 4.49123 17.0538
57 1 -3.34841 4.18121 2.62271
1576 1 -2.3405 4.55413 3.81986
138 1 11.1395 2.93855 -12.5159
574 1 12.1403 3.10335 2.96708
693 1 -0.546855 -8.80394 -14.1706
493 1 11.8484 19.4359 0.656125
286 1 13.0495 17.879 1.49014
1173 1 -0.0962687 5.56129 2.9812
1596 1 14.333 5.16542 3.66859
1186 1 0.956071 4.8243 2.29869
1105 1 0.754975 -6.97168 -10.5401
129 1 29.8039 6.35066 0.840057
1051 1 29.1663 6.60541 1.60499
527 1 16.6193 -8.78782 1.48528
249 1 3.33021 19.952 3.04593
1065 1 -9.80476 5.79159 -1.07519
1023 1 18.1389 19.3227 -12.1737
1100 1 6.26094 6.07325 15.8747
1586 1 -9.82925 6.26919 15.7839
1986 1 4.89955 17.9034 14.9909
198 1 -8.12111 18.0961 2.4136
330 1 19.0624 5.9257 0.982304
612 1 -6.02852 4.5131 2.00527
1544 1 22.0673 5.23023 18.1999
205 1 -6.33823 5.56974 2.77114
567 1 8.63763 4.79982 15.9485
377 1 34.6136 5.7661 1.78633
160 1 8.41225 5.93162 1.11811
500 1 -3.3149 5.16044 -11.622
788 1 23.0049 5.54687 15.5782
226 1 -17.3548 19.1713 1.11293
1351 1 -17.994 20.0432 14.9727
2026 1 -4.17829 5.62011 17.1721
1291 1 -3.63733 -7.43041 4.00013
2004 1 -16.1309 -8.68446 30.2746
1665 1 10.1715 6.16695 2.71815
1706 1 -15.3727 18.2297 15.9455
860 1 12.8444 5.51855 2.0809
1746 1 12.2409 5.10393 16.8964
1554 1 26.3693 -8.59985 14.4046
1607 1 14.4542 7.7784 30.1543
1016 1 13.5433 7.06135 16.3993
60 1 15.1418 5.46519 3.01246
223 1 2.27307 21.7096 -13.1129
1513 1 0.863489 7.10812 29.1655
928 1 2.84822 7.33103 15.9635
1949 1 16.7947 6.97497 1.26667
1236 1 3.64313 21.5454 2.97115
284 1 17.1501 -21.3544 14.6232
1437 1 18.1493 -5.66545 3.73726
1176 1 19.1238 -6.27206 15.6914
1297 1 6.35861 9.09156 1.4326
1178 1 7.86413 7.66748 15.1843
413 1 21.1721 7.73846 2.49167
142 1 9.43697 7.5211 15.9783
1795 1 -5.13191 6.99055 15.4779
434 1 10.0919 7.19554 16.9103
1360 1 -2.19735 -8.17845 3.8766
1255 1 -14.4588 6.76264 15.6834
1198 1 -2.17123 21.9526 2.25628
1463 1 12.7133 19.9102 2.96215
906 1 -0.0914064 21.3749 3.58101
1851 1 -0.0228089 -6.13398 1.74623
993 1 -0.484402 8.19498 -11.0691
1579 1 13.5948 8.63293 1.34067
134 1 1.92322 20.6393 -11.2037
1454 1 14.9067 22.1402 2.03746
1041 1 -11.8502 -33.2815 1.55188
934 1 3.9207 8.97555 3.28561
648 1 19.1109 -5.76452 3.91956
1074 1 4.49621 9.39555 -11.4344
531 1 4.81162 7.67717 2.74913
547 1 -8.06873 -4.24862 2.20481
366 1 -7.37893 8.12662 2.5858
1053 1 22.027 -5.25203 2.05666
667 1 9.48927 8.48866 2.09895
1401 1 7.36605 -5.05032 15.3008
611 1 -4.3468 7.96855 3.37601
1438 1 23.3872 21.9886 4.23669
930 1 -14.978 23.0637 16.7538
195 1 -2.48687 8.0611 14.8902
1587 1 12.3966 -6.26357 16.3117
1257 1 26.1278 22.1975 15.6759
383 1 11.9225 9.5636 1.98562
1707 1 12.9431 7.97617 1.21491
1484 1 0.329367 10.2646 16.4977
56 1 0.414582 22.6188 -10.9779
841 1 -24.5831 8.71877 -10.8228
3 1 1.7702 -2.72904 4.25283
1328 1 2.13119 9.63096 3.18361
1686 1 16.8212 8.92815 1.85604
859 1 16.2204 -3.95578 15.0093
11 1 5.07355 -3.5228 1.64022
1366 1 18.8341 8.64919 3.0452
1385 1 5.80426 9.67697 -13.0116
38 1 4.15748 10.9625 -11.3284
429 1 19.9257 -3.35645 1.42404
424 1 -6.34319 8.37972 -0.151078
618 1 8.0417 9.62801 0.841077
1633 1 -4.94075 -17.7934 15.3363
1112 1 -6.63328 -2.69277 1.916
1778 1 7.96848 25.154 1.80602
878 1 9.95915 9.30331 16.0348
1184 1 10.4587 -2.70089 -11.2306
1349 1 -4.44492 10.0402 16.2302
1379 1 -1.95786 11.1208 2.35571
724 1 -0.697313 9.28493 15.9204
1415 1 -3.04048 8.75598 1.75294
941 1 -0.996447 -3.30307 15.8972
1392 1 14.7817 10.4858 15.4741
181 1 -2.13448 24.1306 1.4069
1689 1 28.6086 -3.43104 17.0309
1652 1 -12.9193 -2.69552 3.6886
627 1 2.15078 10.3277 2.28249
1997 1 -13.0079 12.4281 18.8734
322 1 1.71072 -4.04865 0.524334
1321 1 -11.7835 12.6697 16.5371
549 1 -11.7288 -3.12645 1.28372
1645 1 -11.5898 -1.86785 -9.96801
621 1 3.93492 -2.3072 14.8521
652 1 3.25175 11.0062 -11.7728
1367 1 7.14236 9.76007 14.9665
1179 1 5.60381 -2.85549 -13.1605
1090 1 -7.38689 -2.14824 14.6545
645 1 7.75149 -16.6357 -12.7379
1819 1 8.14191 11.7992 16.4125
1408 1 7.13836 12.1988 16.2949
870 1 -17.2864 -1.65623 15.9925
896 1 11.0041 -1.58384 17.7191
929 1 -4.65425 -2.40709 2.54896
584 1 9.9679 10.6774 -10.3686
1061 1 -0.561401 -3.5474 3.33085
1886 1 11.0755 25.6491 16.5132
1685 1 12.261 11.6102 0.218274
1506 1 1.44442 11.204 30.1235
1371 1 0.638426 -13.8639 -11.8012
1244 1 0.87181 12.1155 3.11976
1449 1 0.244578 13.4079 3.99692
231 1 1.28723 27.7183 16.2955
9 1 16.8799 13.5204 1.78168
253 1 -9.45045 11.9341 2.0553
816 1 17.5658 12.7737 0.373057
1727 1 16.6494 -0.666702 2.95585
221 1 15.8409 14.8387 2.36761
1056 1 3.93287 -0.588574 16.1857
710 1 6.49231 13.3066 2.03864
1538 1 5.58517 12.2973 28.6331
604 1 20.4668 14.143 17.0559
1869 1 4.93049 24.9368 15.1061
2039 1 6.30191 12.0254 29.273
609 1 8.50856 0.283624 -12.1401
1808 1 9.92413 -14.2786 15.6731
1361 1 8.6011 -14.5692 1.90058
1225 1 12.2816 13.4481 1.59425
940 1 -3.70582 -1.88524 16.9938
1631 1 24.3484 2.07151 -10.7765
1455 1 -2.02667 13.9314 2.6581
162 1 0.0220085 11.18 -11.3077
61 1 1.20771 11.9512 1.90321
881 1 -0.708549 -0.955644 1.82274
1293 1 13.9333 28.362 5.39927
855 1 1.16348 0.329378 19.4131
121 1 14.516 14.5504 3.30828
654 1 0.926852 29.5019 -12.4608
1131 1 3.61535 1.95551 -9.42181
828 1 3.47138 14.6292 3.68395
239 1 2.97231 14.2301 2.67428
104 1 4.56701 0.384279 17.4394
781 1 19.8299 -12.4596 3.61591
952 1 17.3498 -0.089957 3.47064
259 1 -7.64295 43.1694 -9.23702
1558 1 18.6802 -0.611393 15.7301
1560 1 -7.2201 0.294946 5.06006
722 1 22.0945 14.6597 19.0205
706 1 8.41139 15.0726 -9.30368
698 1 50.3387 26.9311 3.46329
696 1 9.68401 1.54716 4.63092
1307 1 9.77393 14.3082 5.14346
1467 1 23.418 -1.25277 17.74
1443 1 10.9866 28.3032 18.2086
778 1 -1.55043 -12.3971 19.2184
81 1 12.6769 -0.192092 3.40463
1730 1 -1.71708 1.12307 18.1207
1848 1 12.9154 14.4059 4.98854
343 1 26.9933 15.724 19.221
2034 1 14.3549 29.6919 2.23214
422 1 0.927508 3.41391 -23.6509
1209 1 0.619263 1.48497 4.06874
1831 1 27.7423 2.22817 18.4453
1643 1 1.67799 -11.9266 3.8493
428 1 2.48228 29.5249 2.95641
1047 1 18.0239 1.46724 17.4789
1066 1 17.0524 -10.8491 2.72407
170 1 16.3156 3.9894 -9.8747
765 1 2.93221 16.6997 18.4152
1765 1 5.90857 15.7186 16.7151
622 1 5.07649 16.1834 15.9533
1330 1 3.5702 1.99965 3.23401
776 1 6.17526 3.12427 17.5506
2019 1 -6.33192 15.071 16.9881
867 1 6.77772 15.7967 17.3365
88 1 8.73081 2.86399 4.52097
745 1 -5.31212 1.6138 16.9951
1961 1 9.14112 2.19354 17.6229
135 1 -16.9373 16.8349 30.4239
1922 1 -2.56197 3.27517 15.9517
1514 1 9.68185 2.75476 18.6194
235 1 -3.10763 17.0526 -9.68041
601 1 10.1478 2.47727 3.84161
1532 1 25.3389 2.20005 18.5367
747 1 -1.20815 2.78494 4.41887
697 1 25.3276 -10.2398 4.21076
1854 1 39.536 -24.9747 -7.93219
1405 1 13.1159 29.2629 -9.16532
583 1 15.8792 4.65937 2.78339
119 1 0.534566 16.8855 5.16057
2048 1 13.4859 17.0389 18.1494
1529 1 1.67581 4.3575 4.49592
1541 1 3.42149 4.1163 2.98984
737 1 -9.4923 17.1573 30.6191
790 1 3.38928 3.0952 -10.0221
961 1 1.87717 29.5589 4.81936
453 1 -10.4991 19.0836 2.36733
1104 1 18.3943 4.39785 -10.3939
744 1 5.36581 5.27578 16.644
1835 1 -6.79569 3.94622 3.85665
999 1 -7.91795 17.8225 3.42642
486 1 8.10676 17.3726 4.23002
1658 1 8.40236 3.21573 16.9412
1125 1 8.68231 2.39888 16.3657
1502 1 9.41711 30.7955 17.8154
593 1 9.47651 3.59483 2.8496
443 1 9.57603 18.5046 -10.7453
637 1 -2.73882 5.7902 4.8971
863 1 10.7653 16.7712 5.02513
1496 1 24.0788 5.17642 17.7785
1122 1 10.0587 4.19241 17.3069
1486 1 10.3258 5.11121 19.078
1948 1 26.3034 17.322 31.1255
1574 1 -0.0823602 4.59375 29.9095
1320 1 -0.364113 4.16995 5.16786
105 1 14.234 4.15138 18.3215
522 1 2.56848 18.6249 18.3026
1098 1 14.7608 5.20783 5.09791
301 1 13.5263 4.14637 17.3088
502 1 15.8566 18.8146 3.6398
405 1 3.17064 19.3786 -9.72624
687 1 19.0621 6.61912 17.4321
1253 1 17.8682 19.2232 2.77004
27 1 5.62401 -8.40706 -11.8481
1110 1 20.1944 5.30089 30.9416
491 1 -7.1015 18.4924 -11.5372
189 1 21.9939 5.68413 -10.3992
797 1 7.31117 4.37429 -24.3643
51 1 -16.1331 20.6353 -9.27211
1525 1 10.0447 6.16945 5.26531
279 1 26.5921 -8.11679 17.6753
114 1 -1.47557 19.5871 -9.08861
84 1 12.3787 4.45967 4.26403
1268 1 12.6644 4.18842 -10.788
2033 1 14.0001 18.9785 6.23324
145 1 0.110625 18.7755 18.3785
313 1 28.1318 21.8637 3.8022
1718 1 29.9905 -7.44239 15.8193
329 1 1.31755 19.9877 5.1315
28 1 2.10925 6.27127 4.13166
222 1 4.29888 6.99762 3.88687
880 1 4.41412 6.6014 -10.7942
1571 1 5.74517 -6.51843 16.7353
985 1 19.033 -6.92964 4.82269
477 1 32.5122 19.997 15.7311
460 1 6.83419 -6.70839 16.7979
202 1 7.48731 -7.02739 2.34409
763 1 20.155 -6.15598 -9.68124
655 1 8.21726 19.474 -11.4974
683 1 8.01505 6.85495 3.30396
946 1 -5.21179 7.58325 2.79756
1773 1 7.48533 -5.96086 3.58101
1918 1 9.41395 7.09481 3.98641
890 1 -5.136 -4.88616 3.78411
1697 1 -0.633342 6.50061 4.63286
1251 1 -3.29702 7.50313 18.0954
1624 1 -1.0804 -6.1707 17.2829
171 1 -2.62459 21.3857 17.0438
1059 1 8.90155 6.53439 16.4127
487 1 -0.700142 5.1884 -8.35998
899 1 -0.238296 6.53285 31.0342
1400 1 1.56777 8.81892 16.7357
1017 1 1.76144 34.429 -10.1235
1044 1 -0.493055 8.75986 17.2472
1452 1 14.1993 8.98502 4.51276
471 1 -11.3321 -4.94833 -9.71548
1448 1 15.9628 -7.6235 3.07745
1713 1 15.1272 -5.24552 -22.8305
560 1 4.87197 22.6491 17.7032
927 1 3.23885 8.13698 17.6894
243 1 2.27725 -5.7283 -10.4055
1491 1 18.4915 7.71207 32.0768
2001 1 6.25257 -18.5779 3.40254
568 1 19.9554 -5.57667 4.84668
1885 1 4.74997 -4.02513 3.26963
1623 1 21.2732 8.4088 18.0309
2041 1 20.5393 9.11617 16.2053
1154 1 7.17643 23.811 16.7421
944 1 7.31914 9.08408 3.63097
1728 1 8.52781 7.6863 17.6875
1847 1 7.86398 8.62123 16.5695
779 1 8.95972 -4.13437 -22.7858
1180 1 21.3948 7.17398 4.3665
1972 1 22.6405 -3.31568 17.2629
1414 1 -2.81014 8.45069 4.12835
760 1 8.84636 8.88005 16.442
7 1 -2.56728 20.1772 3.4705
1159 1 -13.9565 -19.0671 18.1271
1882 1 29.2674 10.8891 6.04514
1356 1 14.4161 -3.40184 4.35233
1841 1 15.0117 -4.28055 -9.65351
14 1 16.0262 -3.69732 4.20299
1680 1 -11.4443 10.6949 16.981
275 1 3.98919 10.2618 -10.3805
1466 1 3.31298 -3.06305 17.6963
1290 1 -9.09403 -2.49528 3.45608
1058 1 -7.46183 10.2423 16.4396
595 1 36.4931 11.3422 17.4929
564 1 -5.9018 9.67319 2.18846
2008 1 7.61321 -2.73361 3.86779
1423 1 -5.37623 9.75885 3.17778
415 1 35.4889 12.8111 3.03892
1350 1 -17.1658 8.60066 16.9371
358 1 -3.11179 -3.81777 16.6912
196 1 -4.21618 9.44436 -10.1581
472 1 10.2917 9.27522 4.46394
1547 1 12.6844 -15.7284 16.0512
1226 1 25.3426 10.096 3.19148
73 1 11.5211 22.8534 -9.90245
1036 1 -1.71094 8.3965 3.11867
636 1 0.375172 9.53813 17.405
1688 1 12.9569 10.9102 18.0815
1073 1 16.1092 13.5767 -8.3766
1447 1 13.9562 11.4148 18.3291
1115 1 1.05017 -14.2401 16.9798
1062 1 2.13901 -0.0876999 3.2739
257 1 3.40165 11.0083 -8.22838
731 1 14.9522 -1.78653 4.43757
392 1 2.57912 11.6782 4.73938
590 1 2.81224 11.1557 -12.7159
675 1 5.24035 25.4605 -25.0673
1867 1 5.04223 10.4551 2.69453
1009 1 16.7921 9.92239 16.5849
924 1 3.39051 -2.3619 16.6936
943 1 -8.04598 -2.92275 -10.0981
1494 1 5.89647 11.695 18.091
1288 1 8.02267 10.6711 16.4243
1219 1 6.03329 -2.60078 2.12503
1566 1 6.6921 -1.27443 31.0286
1606 1 -3.03695 10.1027 18.7412
124 1 9.20201 -1.25491 -10.9299
1801 1 -1.18086 11.2545 3.50865
1278 1 0.27126 25.8971 4.06773
942 1 13.1146 -1.64959 4.63383
974 1 -0.209455 11.4264 3.46253
1570 1 -0.427375 12.6428 3.38363
1872 1 -13.9632 11.7316 5.58268
557 1 13.752 0.0432199 -10.6204
1099 1 13.3097 -14.1908 5.09273
164 1 2.25083 -1.1645 5.46448
1747 1 14.8597 14.0189 4.10411
1753 1 1.15972 13.0453 4.56973
2015 1 30.5655 12.8597 4.08841
1813 1 -7.66647 -0.441075 5.62228
1938 1 3.95974 12.4708 17.1124
432 1 18.9774 26.9299 3.54761
166 1 -8.77603 -1.25245 16.6737
846 1 19.5457 -1.88411 3.1874
795 1 5.96457 -14.6888 2.73251
1527 1 7.76651 12.1215 4.24806
1809 1 9.81692 -13.2571 3.11248
1897 1 8.00352 -13.8543 -11.5137
1103 1 24.6086 -3.52646 4.01353
92 1 10.6631 13.6853 -8.75165
1565 1 12.0044 0.932153 30.7301
183 1 10.6969 -0.338287 2.97688
1424 1 25.1518 0.113334 4.38301
384 1 -1.50817 12.5228 2.8538
1095 1 13.188 14.1339 2.07416
1792 1 0.973587 29.4464 20.6288
1096 1 15.9256 1.00724 -8.79817
1771 1 15.2341 14.6746 -6.62427
1557 1 1.13792 -12.6626 4.8607
804 1 2.84173 2.01254 18.8513
1511 1 16.3982 29.2879 3.95495
1306 1 -10.3155 14.6488 18.5163
107 1 17.421 -0.0322667 4.6076
749 1 4.38494 1.02672 4.75109
1076 1 -9.35329 0.338855 5.50091
913 1 18.8848 0.418922 18.4234
699 1 4.76668 1.22858 5.76064
1954 1 19.2128 0.594338 5.88309
1573 1 7.94358 2.14396 -8.58397
691 1 7.48615 0.505932 5.18254
153 1 7.18823 15.1539 -7.58273
579 1 22.6502 2.07922 5.30574
1083 1 23.6544 0.184178 6.10384
1891 1 -4.40636 1.15484 5.94856
1796 1 -16.5459 12.7227 6.7375
77 1 11.2936 -0.89043 5.80931
591 1 10.0625 -1.46325 5.90207
575 1 10.7496 0.740906 17.0278
1235 1 11.8157 -1.93236 6.09342
1953 1 -1.08113 0.267289 6.28997
348 1 -2.28819 15.1483 6.25476
907 1 14.4121 0.46349 7.17533
467 1 2.44282 2.39693 -7.6451
1840 1 0.882994 1.45042 6.10282
1862 1 13.6441 29.569 17.4508
459 1 14.9732 2.69058 19.3903
766 1 2.06673 16.9805 5.60172
626 1 4.87174 2.23188 -10.3334
1790 1 4.35943 2.63712 4.10875
1539 1 4.66115 2.3229 5.45404
1316 1 -8.49545 2.11239 6.52134
1478 1 5.80405 15.4584 32.923
192 1 20.5866 16.1357 -8.46354
615 1 7.9624 3.49204 6.54614
577 1 9.26409 15.5365 6.84905
954 1 7.36843 17.0653 -8.72241
1228 1 10.0827 3.19567 5.84363
1232 1 9.01448 30.1344 19.9201
1789 1 -3.09401 15.6536 18.8042
380 1 10.4353 -11.0406 6.79259
786 1 24.8215 -11.215 5.81166
1883 1 11.322 16.2412 17.216
815 1 -1.11319 2.28152 6.77269
1429 1 13.2193 3.1656 6.4789
319 1 24.7706 -9.81707 -8.00917
1129 1 12.9041 -10.6326 -8.40017
270 1 15.0617 -9.53037 -8.24181
602 1 2.66881 3.97656 5.10709
444 1 -12.1447 -10.3539 4.7294
1498 1 3.38558 17.1107 5.95211
336 1 15.4624 18.7725 19.4576
1149 1 4.76852 3.54138 5.44574
1020 1 4.2121 5.53702 6.58949
1919 1 19.3556 -10.8391 5.68274
1814 1 4.41925 17.3858 17.885
2028 1 5.28465 15.1532 4.29207
89 1 5.18436 -10.7723 4.67305
1609 1 5.54783 5.04034 17.6212
1489 1 17.5565 4.11002 5.30736
69 1 6.29636 3.46959 -8.78331
512 1 21.2259 18.1138 4.67093
553 1 7.60652 -10.961 5.95458
1281 1 -4.49895 -9.08534 4.12595
617 1 6.17736 4.99996 -7.23737
1786 1 8.35455 18.1002 20.275
1832 1 -3.68807 3.88027 18.7272
1441 1 -4.5067 -9.66727 -7.45752
983 1 23.9041 17.4918 20.9613
117 1 -1.99968 3.19815 -20.9639
1597 1 9.13446 5.18476 5.88974
1963 1 14.2843 17.4918 33.5695
1985 1 -16.1542 -8.83511 18.4724
295 1 -12.449 19.6715 6.21139
33 1 0.932505 -6.49069 -7.95776
361 1 14.8084 18.2118 6.72427
15 1 16.6546 -6.7573 18.834
1920 1 17.2421 18.9119 18.6087
1353 1 -23.5283 -22.4809 3.82598
1654 1 3.46088 5.09024 -7.79065
973 1 4.61157 -7.89526 17.5988
394 1 4.62196 4.72835 4.77488
191 1 6.16705 6.11651 -10.4541
72 1 5.40833 -9.67145 -9.23116
490 1 -6.80198 19.2216 -22.767
668 1 7.62448 18.6951 3.77189
1942 1 7.61979 18.89 6.91059
1577 1 -4.17866 5.38494 18.3945
1277 1 7.75216 4.09097 19.3301
376 1 21.3205 5.2303 19.3305
921 1 8.95427 4.12259 5.203
1075 1 11.1685 20.3632 5.4694
1282 1 8.65742 -21.3593 -6.75301
18 1 -2.74213 19.7161 -7.26005
298 1 12.1255 5.66218 -7.8242
1459 1 0.199156 -7.82247 32.7337
1929 1 -2.45541 18.7229 5.98032
844 1 12.8335 -7.35636 5.59814
1749 1 13.0654 19.8296 -6.96306
854 1 1.9286 -6.57682 5.50436
390 1 4.00876 6.38486 4.82207
312 1 3.23536 6.25022 19.5208
533 1 1.3558 7.2613 -9.09636
46 1 2.99805 -6.81144 -9.64331
1863 1 19.3218 5.77173 32.175
914 1 5.76793 -19.0661 -7.1815
21 1 -6.34734 -7.45388 -9.94934
812 1 -6.94563 -6.62469 5.05955
1936 1 -6.56118 8.88891 18.8168
99 1 5.46151 -6.09975 -21.781
425 1 8.64607 6.22504 -9.49514
1039 1 8.44883 8.15965 19.7769
1960 1 -5.03265 19.9705 5.47534
1737 1 -17.6595 -6.22099 -8.46488
410 1 -4.55896 20.7949 6.40909
1202 1 21.5296 7.75382 18.9815
949 1 -1.83776 7.50296 5.90258
666 1 -1.55824 20.4513 5.1103
1661 1 -0.653553 7.13476 19.9517
246 1 0.594821 6.23231 -23.0454
1162 1 13.8338 7.10121 18.6694
628 1 -0.872638 -6.10294 5.16114
606 1 28.0097 8.07042 -8.64588
13 1 0.511817 9.88212 5.35839
561 1 0.9389 8.08516 6.12804
1237 1 13.8948 36.5754 6.18412
278 1 2.27918 -19.7982 4.45793
1206 1 3.76098 7.44511 18.4016
1191 1 17.6101 9.28296 5.99994
1505 1 -9.64793 22.5066 -9.1681
1650 1 5.96228 9.2589 18.4231
250 1 20.7172 9.93292 -9.21395
2007 1 -7.39832 10.2843 18.6738
2035 1 -4.93352 7.20962 4.87054
976 1 -5.71715 9.39157 -9.20011
1142 1 -4.31299 -5.03378 5.6182
1312 1 8.7704 8.38653 18.5821
1008 1 10.4674 9.14194 6.12878
1391 1 10.0728 8.14556 -7.47914
137 1 24.3729 7.83372 5.45124
1158 1 24.7199 8.84239 5.17038
825 1 11.3574 8.41497 6.01594
177 1 -1.28205 -4.70826 4.2077
1143 1 11.5957 21.5135 -9.22933
1126 1 0.253383 22.5925 21.3258
1702 1 -15.2321 -5.2191 18.8256
76 1 13.3689 23.394 4.49593
254 1 13.4133 10.7759 -8.37724
1156 1 -13.1037 24.7384 -7.67938
1775 1 15.0439 25.4764 19.3073
1543 1 -11.5634 -4.50087 4.95896
1868 1 3.10633 -3.20695 -7.4648
1081 1 17.3885 23.4835 -8.61561
1989 1 -24.1236 9.41967 4.00553
1626 1 17.872 -17.4617 17.8434
126 1 16.7537 -5.03599 4.99021
445 1 5.03896 9.86692 -8.33237
224 1 17.9521 10.0151 6.64706
2045 1 18.7866 10.0082 4.32565
532 1 17.8316 -2.88064 4.7452
1336 1 -8.19619 10.9304 5.01103
1515 1 6.51211 10.8576 4.00206
1907 1 21.5226 24.4803 -8.87338
1546 1 6.70288 -2.48171 16.6835
168 1 8.65542 -1.92491 4.63473
2021 1 -17.3773 11.7638 18.5775
541 1 8.92021 -2.99777 4.61916
673 1 9.87636 10.4452 4.33343
1693 1 23.2123 10.0221 18.9671
1578 1 22.1072 -3.61742 5.35985
1725 1 11.5899 -4.03598 4.78016
711 1 -0.817573 9.68396 6.65904
1045 1 12.2997 9.98033 4.09002
1522 1 12.4675 36.4518 5.84409
1821 1 1.10765 -1.66916 34.5216
659 1 -11.5316 25.2171 7.02038
1302 1 16.3647 10.3363 5.12095
580 1 2.48278 10.5028 7.19056
658 1 2.80738 11.5462 -7.46994
613 1 3.92012 -1.9602 -9.50295
692 1 6.86804 -2.26045 4.7849
176 1 4.3876 25.4671 18.8485
515 1 5.09087 -0.547644 18.4068
315 1 19.1905 11.6455 5.80132
2038 1 7.29348 11.583 33.0488
1031 1 -7.25719 -1.32483 -7.68621
796 1 -19.5395 -16.6286 6.75134
508 1 10.3892 11.0751 19.326
1877 1 -2.49545 24.818 17.1567
1271 1 10.6586 11.1337 18.076
86 1 37.2235 -3.46563 6.32526
714 1 -2.01485 10.7168 18.0697
509 1 25.7764 25.7273 -9.68789
1339 1 26.015 -14.3134 5.68558
1116 1 -1.59015 10.1765 6.22827
1220 1 14.1325 25.7228 20.0452
227 1 -1.20234 10.1137 18.7406
544 1 28.6954 -14.4156 5.99691
1436 1 30.2736 12.8494 33.6255
334 1 1.84949 13.7249 6.56176
642 1 15.9106 -0.899459 -9.31905
1940 1 16.3691 13.9646 4.18889
213 1 1.99814 12.5897 -6.70413
1171 1 18.5604 -1.59475 3.9518
888 1 32.0923 -13.6786 2.83133
827 1 3.1949 -1.11634 18.6833
1815 1 17.8379 -1.13335 18.249
2037 1 18.7369 13.2687 19.8109
1640 1 32.6961 -1.1713 7.6732
1714 1 32.8046 -1.261 20.3938
406 1 7.02037 -0.79632 -8.95246
1224 1 -4.03044 13.215 4.81473
1656 1 7.27244 -0.418149 5.71505
262 1 7.71753 -1.28859 -8.31549
1263 1 9.40867 12.9762 19.9121
1550 1 25.2256 -0.644324 3.64117
1370 1 -1.53223 -1.52238 5.16585
1163 1 -1.18492 11.1938 -8.13555
169 1 -2.26338 -0.856498 4.73259
1422 1 -1.02741 13.1798 18.0572
530 1 14.2184 0.00834434 18.6748
1762 1 -0.520665 12.709 -7.39672
228 1 1.23509 14.4444 -5.65081
1760 1 13.3255 0.0561294 7.00032
97 1 -10.9658 15.0001 7.61605
578 1 0.18846 15.4511 7.67544
1720 1 17.0707 13.9565 6.09779
992 1 15.7664 1.32863 19.7524
767 1 3.96312 14.8929 6.38769
74 1 -8.39944 14.391 20.5047
123 1 6.214 -12.3525 6.61403
178 1 19.7195 0.769636 -6.17912
723 1 8.32255 1.37687 7.11809
641 1 6.82577 -0.223611 6.78847
485 1 -5.95811 0.485222 6.1686
822 1 -19.4586 15.8699 7.85189
1175 1 8.0258 0.017769 -6.56363
1499 1 22.8226 0.796396 7.5492
1973 1 9.85776 14.5923 20.5442
496 1 11.1604 13.9554 20.1193
1958 1 -4.81115 14.0316 6.45574
858 1 -3.35997 14.8852 5.9684
1265 1 11.3772 14.2097 5.46196
1276 1 -1.39174 -13.6744 -6.10854
1800 1 0.492797 -13.6689 8.00054
1898 1 0.14116 13.5784 -7.73949
1983 1 12.9642 -0.0236099 8.64454
393 1 11.9208 0.834002 -6.69402
1440 1 14.4174 2.56591 8.11859
469 1 0.370891 16.4194 6.18204
1660 1 0.026499 14.719 6.70745
1598 1 15.6721 2.03807 7.07884
514 1 1.41085 1.84051 -5.75797
537 1 2.35558 3.37548 -5.47311
1028 1 1.64403 -10.1798 6.51611
2018 1 3.88182 16.7936 18.7073
1677 1 -10.1125 16.1558 6.05119
554 1 16.6482 -12.5925 5.78034
1345 1 3.78921 -12.0619 19.1746
1738 1 2.93721 1.66565 20.3258
1046 1 4.64687 3.03678 6.35945
1272 1 5.91033 1.28294 8.27498
1092 1 7.11852 0.80559 20.7702
1905 1 33.0182 15.4847 21.0299
495 1 20.2121 2.35344 -7.45053
1380 1 -5.47102 1.76194 6.07204
291 1 -4.65103 15.3977 8.08038
111 1 5.73708 17.5126 -7.84199
1412 1 11.62 15.5492 20.931
1708 1 -3.67205 15.7781 6.04909
1806 1 9.4046 -10.4742 7.04301