ITEM: TIMESTEP
175000
ITEM: NUMBER OF ATOMS
2048
ITEM: BOX BOUNDS pp pp pp
0.0000000000000000e+00 1.3679807573413575e+01
0.0000000000000000e+00 1.3679807573413575e+01
0.0000000000000000e+00 1.3679807573413575e+01
ITEM: ATOMS id type xu yu zu
1455 1 -0.0949807 14.0134 0.708323
1133 1 -12.9685 -13.3002 15.274
1042 1 13.2534 -12.5711 14.9403
1229 1 17.422 -0.770093 3.68048
44 1 1.61784 0.297778 1.002
891 1 28.8363 13.576 16.0039
1562 1 17.4352 -13.9065 28.3347
1628 1 4.20971 0.307473 1.81472
849 1 17.1928 -14.4391 0.0784835
1031 1 -8.74768 -0.784668 -12.4124
1372 1 -8.07945 14.3981 14.1686
1127 1 -6.56368 13.8873 0.353796
421 1 8.03689 0.454315 0.915332
1860 1 8.25544 13.738 13.5521
330 1 20.8784 -0.440448 1.25412
281 1 8.79436 14.5969 1.59791
1890 1 8.99723 -12.1071 0.714058
4 1 -16.3748 15.595 -13.1899
1825 1 -16.7719 1.43455 1.49923
1341 1 25.0545 0.841934 2.0774
1309 1 11.6938 1.12764 14.6711
883 1 11.303 -0.113598 13.9342
201 1 13.0487 13.2449 -0.198275
6 1 -1.409 0.314666 15.1715
1622 1 0.762171 14.7236 14.3137
1763 1 -13.5143 1.58284 13.4625
939 1 1.14638 1.76403 -15.1777
995 1 -12.4379 2.77281 14.7044
1005 1 1.80172 14.4625 30.5527
1160 1 4.47091 1.15972 16.0305
1823 1 15.5632 28.6236 0.860973
1913 1 3.85932 15.3222 14.6661
600 1 4.08388 0.696966 0.650374
795 1 4.86716 -12.2262 1.2997
1901 1 6.63269 14.8139 28.1672
654 1 5.51176 29.6033 -13.6004
1360 1 -6.24372 -12.2155 -0.0532863
424 1 -6.49009 3.03365 0.258498
1274 1 6.19309 15.0111 -0.310332
486 1 8.5022 15.8716 1.57378
235 1 -7.17201 15.9968 -13.5315
1110 1 24.522 0.914865 27.852
1443 1 10.461 29.8782 15.1372
1233 1 24.9241 -10.5332 -12.6205
959 1 11.0062 30.0004 2.33395
1822 1 -4.2022 2.8303 15.1783
143 1 -1.19115 -24.4264 -13.2488
1830 1 11.3896 -11.6479 15.269
1417 1 13.0426 -11.7383 14.0704
1574 1 0.446594 2.22707 27.8096
607 1 27.8351 3.96608 0.51977
502 1 15.7655 16.7358 1.81847
221 1 14.9275 18.5215 0.807859
1146 1 1.3285 19.1521 13.2383
1961 1 2.29997 3.23655 13.9962
999 1 -10.2532 15.4212 1.96238
1013 1 30.9576 30.0082 1.40143
1000 1 5.15256 17.1041 14.0308
788 1 17.9868 3.09622 12.7427
1572 1 -8.14529 4.21545 14.8251
565 1 5.15863 17.6993 2.23068
1020 1 5.48886 2.78081 1.88649
1982 1 21.6093 3.40505 12.2201
1456 1 5.45409 17.8706 13.3105
1189 1 -7.06149 -9.43242 14.0748
1812 1 8.02839 -11.298 13.9268
895 1 36.8257 3.76645 -12.6399
1065 1 -2.69893 5.41355 0.580653
1549 1 10.2841 -10.4805 27.9122
1943 1 -4.42697 16.31 14.1449
800 1 -2.12458 3.66634 1.84594
135 1 -16.333 18.0368 28.6719
621 1 -0.379703 4.47102 14.3794
125 1 -1.4772 3.01026 -12.2809
1915 1 26.9246 2.97226 2.2037
396 1 13.812 16.9579 -13.9232
1586 1 -13.7739 5.47555 14.657
1732 1 0.234954 31.9279 1.45463
1400 1 1.04306 5.37805 15.324
905 1 1.92067 5.88573 15.0724
1927 1 2.29674 5.81888 13.106
1292 1 15.6789 4.94579 28.8024
947 1 17.4805 4.73063 14.0298
1012 1 3.38416 4.5151 1.27154
1351 1 -23.9976 16.973 14.2727
491 1 -9.61852 18.8175 -14.5613
923 1 5.48283 18.763 26.4607
1200 1 8.25383 -7.74466 15.1653
1903 1 -7.82452 4.95624 27.7858
727 1 5.95777 -8.02529 1.83455
75 1 -7.057 7.29459 -0.796299
1691 1 -5.2277 4.67766 1.13864
1987 1 -6.8202 5.39864 14.0873
1863 1 22.4686 5.34463 26.6391
1531 1 -4.04949 3.71743 -0.19447
1706 1 -18.94 19.951 13.9367
1603 1 -3.53033 21.0899 28.7966
1343 1 12.0387 17.6534 0.688923
88 1 12.0429 5.10356 0.785339
682 1 1.06472 3.20905 1.87536
1511 1 12.9572 32.8607 -0.0155555
70 1 -0.824812 6.63371 0.215385
871 1 -1.1879 18.2683 -0.414903
1385 1 1.70199 8.57168 -14.8062
572 1 -12.9591 6.03986 0.449648
54 1 14.4187 7.23035 -13.5254
243 1 2.27368 -4.79288 -12.7039
672 1 14.6551 21.5224 28.532
1465 1 2.30267 -6.06139 14.4375
1500 1 3.33469 -6.22277 27.9373
140 1 17.5398 33.7712 0.0269888
1689 1 30.9913 -7.0101 15.0306
1805 1 31.6552 5.9647 0.984416
386 1 -8.36379 -7.71752 14.7118
1059 1 7.137 7.31251 15.1866
1646 1 9.33701 -8.21451 1.16942
1430 1 21.2491 4.48803 -13.0716
970 1 21.2166 6.47983 0.885454
1918 1 9.02783 6.7005 1.3217
1712 1 -3.98396 7.06179 -0.293526
1633 1 -3.97984 -21.7064 12.388
1088 1 -2.95513 20.2734 0.109413
1401 1 11.5026 -6.01834 15.6662
1718 1 24.5929 -6.95494 14.885
425 1 12.0878 6.9516 -12.5694
1439 1 13.0974 21.0302 26.3815
212 1 -0.977533 -7.67313 -12.1499
930 1 -13.6931 21.042 14.5995
1865 1 1.27693 9.36899 1.22455
656 1 15.1419 22.139 27.7045
1867 1 3.87306 8.15478 -1.14894
507 1 3.10553 8.76081 0.393239
416 1 2.14643 23.6866 1.36086
1736 1 3.63439 21.8065 14.9162
2043 1 17.8594 8.15673 13.6824
457 1 -9.36257 21.1174 1.72072
1055 1 3.21023 -6.17155 -11.5983
1701 1 5.0964 21.403 -0.0556462
477 1 33.1612 23.2918 14.3381
196 1 -7.12983 6.28466 -12.6336
1402 1 20.2536 -5.51227 14.6432
478 1 19.3938 21.9994 1.74706
1517 1 20.3252 7.11192 14.1695
1285 1 22.2807 8.48125 0.307544
760 1 7.89528 9.77532 14.7418
472 1 8.9118 7.60127 0.86168
1134 1 8.99778 -18.2355 1.32871
1707 1 10.2608 7.71212 0.479044
988 1 -3.02781 8.4589 1.80618
1080 1 -3.75754 -5.13781 28.2936
1696 1 25.4517 8.23618 -0.0206581
1152 1 10.0435 8.61139 13.5928
465 1 9.63058 23.1501 0.302139
1745 1 -0.933292 21.6358 14.3937
1148 1 -2.25374 21.4778 0.988218
1884 1 13.295 22.7213 13.6153
645 1 14.8436 -16.4919 -11.442
1870 1 0.323557 -17.7093 14.3316
896 1 15.9946 -3.84114 14.0944
83 1 2.85465 10.9149 1.99277
1725 1 16.6966 -3.81637 2.03897
993 1 2.5857 10.7332 -13.778
328 1 5.11695 -5.03333 14.1909
1724 1 16.6013 22.4914 15.4717
293 1 3.06661 9.63286 14.6638
2046 1 18.565 8.43807 12.8309
404 1 5.03318 9.589 13.3704
306 1 4.80757 -16.5256 12.8412
1090 1 -9.12821 -5.20459 15.4188
1420 1 20.5256 -18.0783 14.3732
173 1 -5.42784 10.9053 0.0504236
692 1 8.13528 -3.05225 2.22454
976 1 -6.26862 10.151 -13.4924
675 1 9.00965 24.3271 -24.5466
1355 1 -3.8009 -2.50059 29.8158
1208 1 21.7508 11.7363 12.7163
539 1 8.74573 10.0989 -13.1793
1376 1 -3.9026 -4.99334 2.55516
1615 1 -3.92202 -2.34164 15.149
1579 1 12.0339 10.473 0.889164
1178 1 10.889 10.9678 14.1593
1249 1 10.7618 10.0921 14.8425
1230 1 -0.149443 8.10791 15.3165
383 1 10.2436 10.9401 -0.545665
599 1 15.8054 23.8772 2.47137
525 1 1.53958 11.2069 0.653192
1955 1 0.935568 -2.18708 15.0643
2000 1 14.3537 11.9631 13.6467
792 1 16.9477 -17.4302 13.6643
17 1 -12.001 -1.44713 13.951
11 1 3.92161 -2.80832 1.58702
1136 1 4.02909 9.1618 0.214979
938 1 18.2179 12.4044 13.9431
1431 1 4.9733 11.4399 13.9353
1897 1 6.79572 -16.4756 -13.096
1297 1 6.31414 12.0267 -0.597745
1058 1 -7.51955 12.5193 14.9317
2039 1 7.25422 11.2094 29.9365
1038 1 7.37175 -15.8357 -0.097331
1626 1 21.4303 -16.4798 14.9054
429 1 22.6422 -2.26709 2.08443
1824 1 21.573 -0.849355 14.3646
1755 1 8.27753 39.2068 0.670569
1184 1 9.87453 -1.04824 -12.5076
217 1 10.8298 24.6377 1.79607
22 1 -3.58289 -15.3967 17.3163
878 1 10.884 12.6963 12.9334
366 1 -3.93674 10.5276 0.687527
162 1 -4.43071 10.4596 -14.0578
536 1 13.1405 23.7446 14.4273
732 1 14.1981 12.3204 14.6779
996 1 0.422565 24.787 14.1221
169 1 0.264359 -2.27778 -0.821176
64 1 26.1107 11.1676 1.60974
664 1 14.4921 27.0993 -13.1576
857 1 16.3157 -13.4813 14.6328
1273 1 1.71414 -1.39902 1.41374
82 1 2.61341 -1.07812 14.4722
980 1 3.97697 11.5294 -12.9127
1188 1 -11.8066 -2.53113 15.3014
1359 1 -9.04601 13.3636 27.3866
430 1 4.08498 24.9489 27.0394
1534 1 -9.07833 13.0708 2.38255
91 1 32.1706 -1.76046 1.23542
412 1 31.1381 -1.54762 -12.0027
741 1 19.3056 13.1104 14.1361
1802 1 8.00177 11.8873 15.8865
610 1 6.61632 -1.01078 0.215103
1261 1 7.18096 11.9184 0.859508
1858 1 9.04192 11.5049 -0.322436
1998 1 9.02679 -0.734651 14.298
317 1 10.6574 -15.4103 1.60955
865 1 -3.72005 13.0083 13.597
2030 1 10.1628 -13.6133 14.3591
929 1 -3.86504 0.731031 1.40558
955 1 -2.42588 0.60221 -14.1999
496 1 11.831 13.0622 14.8869
1663 1 24.871 -1.11092 -13.0797
1419 1 12.5132 12.0566 14.3425
343 1 26.9893 13.0002 14.7595
1670 1 1.76306 14.8741 15.897
1224 1 -0.0049678 13.4776 2.31771
1809 1 13.0656 -12.7627 2.40908
1422 1 1.69214 12.6729 16.3859
881 1 2.41351 0.436996 1.98368
280 1 2.90668 14.6586 2.81431
701 1 17.6253 0.0351451 16.5161
924 1 6.76992 -0.0710153 16.043
9 1 19.5665 14.6027 1.63218
1108 1 18.6528 -13.5148 1.15328
1814 1 5.39296 14.7123 16.6705
511 1 6.69241 1.75264 1.96695
1277 1 7.07726 0.545206 15.275
1256 1 -6.64419 -1.33304 1.97449
1486 1 8.68605 1.39972 16.1237
750 1 8.13804 13.7145 2.07625
1370 1 -4.92689 -0.694342 2.63133
148 1 9.92309 16.3187 16.0449
1367 1 9.66455 15.3541 15.6216
1747 1 10.5272 15.3388 2.62121
1334 1 10.9241 0.289128 15.0364
92 1 13.0176 15.837 -12.3014
928 1 -1.33875 1.49939 15.3749
683 1 10.5033 0.411172 3.78123
177 1 -2.4564 0.825217 3.16195
1837 1 -1.84708 -12.1428 30.0613
423 1 14.1766 15.1777 1.81183
1570 1 0.611998 14.1891 2.58541
1421 1 1.03689 15.358 3.27851
1259 1 0.561227 16.2835 16.2325
1379 1 2.28057 15.6403 2.6223
107 1 16.1502 2.24747 3.56536
1290 1 -12.3987 2.09189 1.86833
773 1 3.29971 0.840668 1.51306
2018 1 4.75804 16.3261 16.3939
1017 1 3.91005 28.4981 -10.4981
706 1 5.85736 15.7844 -12.3677
1609 1 6.48306 3.61619 16.7156
512 1 21.3626 16.3961 1.33225
1772 1 -7.77764 3.23435 1.03045
1027 1 6.7226 2.55848 1.12703
574 1 7.75418 1.28062 1.51221
139 1 8.14482 15.8098 -10.4117
10 1 10.8671 3.57733 -11.0741
1502 1 10.3025 30.9637 15.4047
1449 1 -2.64527 16.802 4.03627
644 1 -16.527 4.01463 17.1411
1116 1 -2.09364 2.45477 3.37652
766 1 -0.738942 15.6087 2.66639
1624 1 -1.43106 -11.1538 16.0312
931 1 15.4325 17.4567 2.6884
761 1 14.4141 3.67588 2.8942
327 1 2.33379 4.00368 0.976394
1201 1 16.3115 16.0858 -12.5207
1041 1 -10.8698 -35.8738 1.96051
1242 1 17.0697 3.59408 15.5549
527 1 18.5535 -8.83934 3.48524
284 1 18.1092 -25.1931 15.614
744 1 5.97071 4.81939 16.3797
214 1 20.7708 16.8261 2.31807
205 1 -6.28667 4.09799 2.88317
1666 1 -5.328 30.8948 15.1637
1438 1 21.4071 17.9636 1.92516
1631 1 22.2017 4.22052 -11.0337
434 1 8.10166 3.24105 16.4622
1203 1 8.4351 3.43227 0.445208
500 1 -4.37059 3.50429 -11.2924
899 1 -3.28726 5.42976 28.8957
1541 1 -3.34314 3.5124 4.67316
1279 1 -0.856304 31.3048 15.3849
1532 1 25.2707 4.92687 16.7867
597 1 13.3473 3.84258 2.81885
27 1 1.09323 -9.39573 -11.7892
1162 1 14.9183 6.25012 15.9275
566 1 15.6701 -8.74179 -11.1504
1844 1 15.1469 -9.19831 3.60513
145 1 1.94854 20.6432 18.5256
1170 1 14.7102 5.25267 2.71878
1851 1 3.20927 -8.07817 1.20151
542 1 -9.77643 5.45271 2.05303
1964 1 4.35254 4.06473 14.6482
1810 1 6.56405 4.58298 15.171
475 1 5.37376 5.80493 16.7814
617 1 6.94644 3.50383 -12.4681
1629 1 8.29348 5.11455 15.8602
385 1 -4.31019 32.0352 15.6632
1398 1 9.84176 6.40934 14.3347
439 1 -4.61862 5.12536 3.04803
582 1 -14.8836 5.82801 -11.0233
668 1 10.1316 19.3209 3.2619
1969 1 11.6301 19.618 14.906
587 1 -0.232098 -8.24602 16.6908
1596 1 11.8828 4.97396 1.83003
441 1 0.361649 16.1194 -12.1983
1105 1 0.263415 -9.03983 -11.1483
53 1 26.6787 5.03087 15.4936
1872 1 -13.7764 6.48238 2.72518
1255 1 -11.3349 6.2774 16.0199
1384 1 1.79456 -5.90975 16.8173
129 1 29.5127 6.72258 3.21991
2033 1 15.3624 21.7823 2.06517
1023 1 14.933 20.3696 -12.5415
635 1 32.1202 6.445 1.90046
411 1 16.9694 -7.14886 3.65353
248 1 17.0446 20.0065 2.3559
1686 1 18.0662 5.92834 5.2721
859 1 19.8126 -6.38347 15.1193
1564 1 18.4588 18.9378 16.1629
1231 1 31.8659 7.0676 14.1919
335 1 7.87041 -6.77978 2.06307
648 1 21.4819 -6.10148 3.15889
921 1 9.57655 5.69263 2.2315
490 1 -6.49277 19.1551 -26.015
498 1 7.80171 21.0865 -12.975
1797 1 10.3833 -7.32547 2.36991
1616 1 8.44112 6.65552 3.96528
660 1 9.32478 -5.70604 1.86454
1053 1 24.812 -6.6684 2.75437
227 1 -4.37549 7.79034 16.6161
1450 1 -1.90159 6.5521 2.09575
1320 1 -2.06142 7.33046 3.83952
1944 1 13.8228 19.3968 2.07984
1315 1 -14.4184 7.20952 1.70296
971 1 0.195747 -7.23771 1.25142
942 1 14.4563 -5.08832 1.81514
1009 1 14.1591 9.77341 15.4397
521 1 16.1561 8.40048 2.71211
222 1 3.82269 8.22999 2.55486
38 1 3.62112 9.2179 -10.8474
1571 1 3.97821 -6.45799 16.5361
1659 1 5.92605 6.74728 2.34801
1869 1 5.14191 21.4702 14.7821
94 1 17.8975 22.0589 3.75528
994 1 6.76179 -5.68821 2.26448
1737 1 -20.0703 -4.59382 -11.9963
688 1 6.15425 8.07067 3.42848
714 1 -8.62153 7.15266 16.2156
2001 1 7.87655 -18.786 1.048
433 1 -4.155 20.7373 2.2461
77 1 10.3438 -5.9412 2.53419
1349 1 -5.55565 8.09864 15.6523
982 1 10.7375 9.25407 2.59699
1788 1 12.3156 22.1978 3.6707
1168 1 -1.68727 7.49541 -10.7351
160 1 11.919 8.32731 4.76992
509 1 25.0592 22.8132 -12.2634
690 1 12.3283 8.86131 -13.0822
733 1 12.4367 8.06687 -11.9318
1365 1 13.2887 8.97193 1.02551
1225 1 14.6852 10.1906 4.36475
1366 1 15.621 9.12262 2.07415
974 1 1.91107 11.5132 2.79383
1321 1 -11.9286 8.8606 17.1597
2025 1 4.02709 9.49517 1.6998
1131 1 4.8607 -4.00403 -10.3109
1207 1 5.08973 -4.62688 29.8715
253 1 -7.51939 9.33003 1.53931
943 1 -8.63486 -4.32455 -12.4647
1219 1 5.75734 -3.87322 2.45537
944 1 6.99159 10.2645 1.46976
846 1 19.7517 -2.67078 3.64106
408 1 20.7391 -3.98102 -11.2533
1977 1 10.1287 9.39357 28.8086
1566 1 8.53125 -2.61083 31.0263
1099 1 8.20465 -17.7232 2.10391
1311 1 9.20561 -17.8701 29.791
860 1 11.65 11.9949 1.36888
1577 1 -2.209 9.91892 15.7134
1124 1 -0.51262 9.28357 29.5104
146 1 13.1215 10.6879 3.12476
1697 1 -1.26436 9.71845 1.53693
1332 1 14.8913 -2.763 17.0537
1350 1 -13.1674 10.2659 16.7716
1506 1 0.202828 11.1459 29.9774
1289 1 1.06631 -3.27543 14.9825
1383 1 4.31103 11.2731 31.868
1723 1 4.93614 10.5121 15.5096
300 1 -11.2111 11.355 -12.862
58 1 18.2127 -3.51385 0.433899
1492 1 33.3566 -30.5311 15.0206
952 1 19.3533 -2.19963 1.86068
331 1 8.30596 12.0617 -10.4527
1331 1 -7.26346 -3.06207 2.42068
382 1 7.85162 -2.22558 18.0549
785 1 22.65 -15.1801 1.49485
1035 1 7.29964 -2.64169 3.5566
1112 1 -4.19992 -2.50956 4.08529
419 1 10.4309 10.2371 2.30011
136 1 10.8268 12.2628 -10.9741
260 1 -3.92595 -4.22859 4.25657
1044 1 -2.65465 11.1262 16.4586
1415 1 -1.96895 11.497 0.190181
1392 1 11.932 10.8344 16.332
661 1 0.101443 24.5656 1.4565
442 1 43.5907 -0.645867 1.79135
713 1 13.4869 25.44 1.55155
1424 1 28.0897 -0.728172 1.85655
1115 1 4.86706 -14.0754 17.9538
1639 1 30.7234 13.0012 16.1654
941 1 2.5798 -1.64695 15.5562
1538 1 4.20455 11.1413 30.6885
1056 1 4.09439 -1.3549 16.567
562 1 16.2833 -13.6938 2.97508
1558 1 19.6081 -0.598113 15.7334
1843 1 18.6329 -1.6758 16.0002
305 1 19.9529 0.0238489 -12.6764
2045 1 20.2543 11.4334 1.56557
1613 1 19.6728 25.1685 14.2868
2016 1 22.6132 13.5232 28.7727
1886 1 8.11243 26.485 15.4268
2021 1 -17.5918 12.2744 15.9028
259 1 -3.76007 40.8674 -11.8318
1958 1 -4.6858 14.1161 2.71938
285 1 23.7323 -12.9627 2.63549
1095 1 11.9857 13.0349 2.22558
940 1 -2.76954 -0.706392 15.4626
420 1 -1.04455 26.1227 -11.9161
1543 1 -13.6984 -1.2482 2.42935
1459 1 -1.6581 0.308331 30.1511
1209 1 0.603572 -0.595811 3.14596
855 1 1.40477 -0.539361 18.0262
239 1 3.16801 14.2066 4.80243
1945 1 16.9873 0.142863 3.78667
554 1 17.6803 -11.9353 4.66749
642 1 15.9369 0.457401 -9.59347
1790 1 4.20315 0.88078 4.08024
522 1 4.29651 16.4254 17.4412
1361 1 4.21837 -13.095 5.15283
609 1 5.9219 -0.00944132 -10.5309
138 1 6.39455 0.909996 -10.8684
515 1 5.41503 0.349442 18.3957
1608 1 -8.18873 -11.8296 19.0896
111 1 5.90832 15.1617 -9.24529
1839 1 7.71494 -12.9719 16.4617
1408 1 7.1575 13.629 17.2696
1539 1 8.15408 -0.0583204 3.40567
377 1 35.1641 2.23696 2.24712
67 1 8.10418 12.7986 17.8957
613 1 9.52621 1.76589 -10.7057
117 1 -3.95339 1.04971 -23.5466
1883 1 10.9843 14.6152 18.6012
2026 1 -3.57778 0.373895 18.4074
124 1 12.4109 1.63688 -10.1015
681 1 12.6597 -10.8015 3.38658
1067 1 -1.03898 14.2945 3.95267
583 1 13.7061 1.2211 3.26667
778 1 -0.0188746 -13.4222 17.0907
1801 1 3.04864 16.3937 2.63647
1753 1 -0.0388488 14.3822 4.49572
815 1 1.71574 1.51606 4.03659
530 1 16.4462 1.31301 17.5671
394 1 3.27835 3.37632 3.74312
392 1 4.06697 16.4139 4.87683
1253 1 17.0927 15.7592 3.43481
704 1 16.1151 4.09918 2.04825
1141 1 18.7302 17.4317 3.15223
461 1 -9.03378 15.4732 17.2523
626 1 5.54001 1.7669 -11.3995
1733 1 7.2099 29.081 3.00786
1458 1 5.91223 15.5648 17.0058
1960 1 -4.88128 16.2154 2.49005
593 1 8.88791 2.814 3.58687
567 1 7.13728 1.31461 18.1031
1544 1 24.1367 1.61983 17.3474
691 1 8.64227 3.76124 3.81376
153 1 9.54406 15.7166 -9.60191
304 1 -2.6502 2.17789 18.2348
1476 1 -2.20715 15.1355 3.94353
121 1 12.0038 15.9356 4.40991
349 1 12.7144 1.07901 18.5477
747 1 -1.07989 1.49577 5.9245
816 1 12.2115 17.4205 2.73808
188 1 0.441855 16.4621 18.0562
87 1 -0.32132 17.1399 17.5416
1618 1 2.32946 5.08316 31.5067
519 1 1.60396 2.75267 16.4919
569 1 17.8558 4.26003 2.3233
453 1 -9.20696 16.8985 1.70302
21 1 -7.96101 -10.6741 -10.1543
909 1 5.84155 17.9567 -10.0627
2028 1 4.19172 17.5483 5.27227
481 1 -7.40238 3.66343 -9.42409
390 1 3.92103 3.25373 2.78274
954 1 6.28358 16.3048 -11.1371
969 1 -6.64277 18.1092 3.6823
1303 1 6.11971 17.377 -11.6152
1832 1 -5.72286 3.72461 18.3053
1682 1 23.786 16.5366 30.8088
890 1 -6.16069 -10.2854 3.66391
579 1 23.4256 3.75873 3.72756
1193 1 24.7981 3.98735 18.7979
637 1 -2.61747 6.501 4.03706
360 1 -16.6213 4.85606 -11.2832
458 1 -3.14875 31.7978 4.48503
1293 1 12.0751 33.0144 4.52524
1985 1 -15.3049 -9.87435 17.8745
1463 1 13.906 18.3446 3.63755
278 1 -1.01413 -22.9852 3.43881
1948 1 27.2706 16.1255 30.6569
1098 1 13.2502 4.5164 4.45328
555 1 14.8191 5.29556 18.096
697 1 28.2899 -9.61346 4.49279
195 1 1.43169 6.34545 17.7977
198 1 -12.7381 20.4549 3.16753
1448 1 16.4057 -8.1395 3.07652
822 1 -22.8072 20.2411 3.47712
1719 1 18.6084 5.77225 -9.50877
811 1 16.9466 -22.6688 2.92343
568 1 18.2218 -9.24516 4.54511
312 1 5.95987 5.21496 17.727
710 1 6.88032 5.23172 2.46455
1632 1 20.7309 -7.41337 2.05022
1300 1 6.61688 -7.71918 17.1031
703 1 7.24158 -6.7914 4.24085
1959 1 -5.56044 18.3572 3.4451
1180 1 21.3534 5.44134 2.91208
1122 1 9.77498 4.24854 16.5138
1245 1 9.56841 4.88834 17.5767
797 1 8.98589 6.60406 -24.3045
1158 1 23.6632 6.44469 4.26157
730 1 24.9828 33.2449 -10.7084
1268 1 10.9779 8.13818 -10.2928
1183 1 -14.2267 -7.38985 17.3227
84 1 13.3843 7.04824 4.9751
1143 1 13.2962 19.3455 -9.14326
114 1 -2.85842 18.9133 -9.74075
917 1 15.7638 -6.66649 1.71424
246 1 0.229949 6.89402 -23.478
531 1 1.07243 8.38502 4.04785
612 1 -10.64 7.39066 3.10908
1010 1 -12.3452 -6.29424 3.9661
1813 1 -10.969 -5.71036 5.9139
1051 1 31.4923 5.54014 3.09945
1513 1 4.99787 8.05472 30.4626
405 1 3.38843 21.0356 -8.99306
1607 1 19.3805 6.84349 30.7144
1841 1 18.2586 -5.88393 -9.04498
880 1 3.58338 7.78407 -7.34166
1885 1 6.14229 -5.10709 4.34251
946 1 -6.77022 7.7624 5.8923
1795 1 -5.76688 6.37359 16.6324
191 1 6.34336 7.26632 -9.14943
745 1 -4.58803 6.23975 18.4657
154 1 7.11641 8.04359 -8.79912
29 1 19.4849 6.93203 6.54335
1525 1 8.76547 8.30121 3.90261
2004 1 -17.1972 -6.39058 30.8584
1576 1 -3.21968 7.68828 4.47646
13 1 -4.40559 7.32708 4.01029
1786 1 12.1086 20.0674 17.2847
1369 1 -0.715593 7.4343 3.44111
2035 1 -0.664114 8.15824 4.48146
510 1 2.36799 8.72067 4.28539
549 1 -13.2164 -6.3938 2.05427
1713 1 13.0127 -4.42473 -24.192
1223 1 0.47172 -6.02814 4.72399
1939 1 2.56945 -6.17188 17.7493
1934 1 -11.2018 -4.01398 -8.50172
1301 1 1.90353 -5.62972 4.90056
533 1 3.13155 8.30294 -8.79569
1785 1 3.71149 9.31027 17.8584
68 1 -9.50945 8.66449 4.85048
918 1 6.67952 20.6514 3.46068
1423 1 -7.37966 8.37194 5.43123
432 1 16.9063 21.9766 3.60132
1604 1 7.45926 22.5817 16.6231
1437 1 21.6464 -5.93397 4.28534
564 1 -5.86119 9.02825 3.87448
37 1 -5.86992 10.0094 -10.1999
171 1 -3.55766 22.3726 17.376
1036 1 -5.13642 8.6515 2.77088
935 1 12.5 6.88928 4.35167
1045 1 11.952 8.72571 2.43344
844 1 11.6047 -4.37147 5.34665
1739 1 12.2376 -3.95489 4.13469
873 1 12.9735 21.933 -11.0663
1375 1 12.1638 -17.5144 -10.5888
1481 1 -0.454212 22.1008 5.59803
384 1 1.60619 9.8931 3.27201
56 1 0.882859 22.8149 -10.8971
1971 1 2.5945 9.38087 -10.4681
1452 1 13.6611 10.0222 4.10517
1302 1 16.7847 10.4937 3.00334
1957 1 4.00104 -3.41296 4.56289
1598 1 17.1551 -4.3568 5.28869
1284 1 -8.77156 -3.03425 4.05625
1138 1 3.71782 -2.18276 -11.2467
985 1 20.0001 -4.77874 2.51503
1345 1 5.7261 -17.3443 17.6104
1874 1 5.28078 -18.7125 18.9456
848 1 -7.02314 -17.0657 31.871
667 1 6.58272 9.88945 5.71646
1142 1 -5.99899 -3.8266 4.51867
1808 1 8.78252 -17.8822 17.307
1271 1 10.5587 9.49498 18.6093
168 1 10.2836 -2.76136 3.51829
731 1 10.0203 -3.74392 3.25601
391 1 11.2199 -18.4616 4.10947
1688 1 11.1032 10.2283 16.8325
719 1 13.2666 9.68071 4.95204
142 1 12.9455 10.3528 15.7556
402 1 27.3752 8.28251 17.0943
1305 1 -14.9548 -3.34249 4.9695
43 1 13.3369 -4.35695 6.41003
483 1 2.8486 11.8969 2.98904
183 1 16.7412 -3.04149 4.03585
164 1 3.10252 -1.82605 5.1122
694 1 4.12079 11.936 5.51197
1547 1 17.7203 -17.2092 17.1972
1494 1 5.02373 9.04621 17.8735
371 1 -8.31443 11.6391 3.28881
1064 1 6.74689 9.45531 3.62608
1328 1 4.05929 10.4194 2.50521
627 1 6.42102 11.8612 2.77032
363 1 7.25356 12.27 3.57196
560 1 9.67351 26.1739 19.7399
618 1 6.75991 11.3701 4.45747
911 1 20.5246 -2.24199 19.2111
611 1 -4.97058 11.9842 4.35577
987 1 8.74364 12.6217 -8.43695
1804 1 10.6723 -2.68814 18.279
397 1 11.0762 11.5191 17.5415
1357 1 -4.06637 12.2305 4.51345
1590 1 10.7676 -1.64885 4.66056
573 1 25.5286 -15.9856 4.61584
1103 1 25.4265 -0.984306 3.16294
673 1 12.0756 11.5856 3.34099
720 1 -0.907507 11.6914 16.2577
636 1 0.290429 11.1788 17.3296
1235 1 13.274 -1.53975 3.419
1507 1 2.45038 13.2393 18.4379
1156 1 -12.6876 25.6091 -11.4179
2034 1 16.3196 25.9469 3.98162
158 1 0.627196 -1.67284 3.20561
1260 1 5.33943 10.6346 16.6122
901 1 16.9625 12.7142 5.60649
1071 1 32.7192 -0.826248 16.7316
1680 1 -9.96185 11.9321 17.6329
467 1 4.87478 0.207551 -10.2871
1917 1 5.23179 0.0815408 2.22463
867 1 6.34925 12.8075 16.604
389 1 19.7062 -14.1793 4.19838
558 1 6.39967 14.2143 17.4715
1931 1 -18.0635 11.7885 16.7653
2008 1 10.4922 -0.85469 5.20607
920 1 7.55713 12.9874 2.78954
698 1 50.1014 26.4025 3.73211
1414 1 -3.59244 13.0712 3.92618
1662 1 -1.83974 12.3401 5.43597
1565 1 9.96832 -0.536858 30.3106
1299 1 -1.93105 -1.81481 16.0513
1840 1 -2.69462 -0.157841 2.77201
793 1 12.6818 -0.554763 2.98823
1244 1 -1.96131 13.6388 3.77249
1660 1 0.123458 15.676 5.17063
827 1 1.06658 0.512882 17.546
1673 1 0.899971 -0.0890717 6.05651
1550 1 29.1913 -1.44837 4.6975
767 1 4.03571 13.4897 6.85493
104 1 4.90257 1.28689 18.4942
948 1 5.49316 15.2701 20.0824
447 1 33.6242 0.365525 6.6995
1281 1 -7.36257 -12.7324 5.27848
1600 1 19.0502 0.716976 5.6814
1894 1 -7.4127 -0.253063 19.0225
557 1 7.56933 1.09026 -8.28148
1778 1 7.90924 27.9538 4.40228
351 1 11.3755 1.34218 20.1826
1262 1 -4.72574 0.324442 17.695
723 1 10.1252 1.48177 4.85613
291 1 -5.10972 14.3927 7.26822
1228 1 11.6365 1.6458 5.36802
1339 1 24.126 -12.6341 5.99226
228 1 -2.18202 16.461 -8.20002
1848 1 14.1715 13.4591 4.67508
907 1 12.9764 0.344323 5.43332
1405 1 13.0726 27.0084 -9.53063
249 1 0.55233 15.471 4.15306
702 1 27.8277 30.3674 -8.01837
1862 1 17.3573 27.7239 19.7644
790 1 3.28701 3.20396 -8.67161
1612 1 3.13682 2.26941 18.1791
1330 1 3.50149 3.12679 6.21051
1066 1 18.729 -11.3199 4.44646
1873 1 3.44999 2.23637 19.2543
1489 1 19.5522 2.87756 5.0996
242 1 5.06076 3.08539 -8.04369
553 1 7.46784 -11.1207 4.30146
696 1 6.08609 2.37809 4.24754
601 1 6.62474 2.06339 5.05254
718 1 -5.03654 14.8957 17.366
1197 1 8.43462 29.561 4.2399
1730 1 -3.41744 2.56885 18.8875
1441 1 -4.4059 -11.6443 -8.57927
1011 1 -2.83432 15.8529 -7.72914
1542 1 -4.22799 2.767 6.07252
410 1 -2.55005 18.6154 6.12934
1893 1 -0.559941 3.84401 19.4414
991 1 13.1139 15.8729 -9.34824
1150 1 1.31303 16.2215 -9.81531
446 1 15.3345 3.39881 -10.0402
1930 1 1.45491 3.53909 5.2821
700 1 16.2748 6.26237 4.36517
602 1 2.47182 4.04514 3.75886
628 1 2.24256 -10.9054 4.4564
387 1 1.3956 4.62361 5.2303
101 1 2.29884 4.06566 -8.80091
758 1 3.73895 4.45824 3.87661
772 1 3.39198 5.42667 17.9467
1149 1 3.80413 4.37858 6.14409
115 1 5.38009 5.10543 18.6256
1846 1 4.93337 17.1375 4.70883
194 1 -10.261 -9.10294 18.6605
1100 1 6.79429 2.62989 17.0901
1003 1 6.02406 31.7029 18.7944
1798 1 7.19311 -7.4953 18.7342
789 1 7.19006 -22.9086 4.81604
1239 1 34.3245 3.14903 5.33248
762 1 21.8198 31.8435 -8.27996
314 1 8.38968 4.78905 -22.9522
431 1 -4.26302 -9.55364 4.82034
1022 1 23.1312 -10.6713 4.53953
863 1 10.0694 18.0954 6.75302
1929 1 -2.89452 19.3503 4.85763
992 1 13.646 5.56698 21.2861
319 1 25.2496 -8.94546 -9.29997
550 1 -1.82035 -8.65144 19.0584
325 1 14.2888 -9.61314 5.53219
46 1 1.07671 -8.54434 -7.49077
134 1 1.67004 19.1601 -10.1491
1236 1 1.66332 19.5231 5.32863
922 1 1.89678 -9.83513 6.17987
1920 1 17.5863 21.0669 17.5323
687 1 16.1035 4.99524 18.9241
973 1 5.3804 -6.0233 17.7213
1807 1 5.61467 -7.54737 18.6452
632 1 33.8271 5.37266 -8.64624
1118 1 7.41001 5.85481 4.09856
1282 1 6.41957 -21.1077 -9.3538
460 1 6.20481 -7.65883 19.6757
1704 1 8.28941 -8.07025 18.7699
576 1 8.49324 5.63589 -9.91309
487 1 -3.4876 4.66855 -8.22863
633 1 24.7389 19.7074 -7.82087
1496 1 24.343 6.8062 18.7181
1007 1 -3.70022 6.21305 -8.23605
986 1 11.6638 6.53031 18.6665
321 1 12.9661 -8.46355 -8.25021
192 1 13.7381 19.0694 -7.34101
372 1 -1.59347 5.89642 -7.64573
1206 1 0.537654 5.34247 18.9499
279 1 28.1524 -5.74736 16.4954
1620 1 0.176505 6.39527 5.86536
561 1 1.61518 6.12969 6.51026
318 1 14.008 -7.29565 -6.72632
841 1 -25.4249 7.11184 -7.51196
298 1 15.7419 5.11753 -7.35412
1039 1 2.77622 6.9742 19.2251
99 1 4.00625 -7.58182 -21.0463
1074 1 3.87599 6.9792 -8.11555
1838 1 4.95011 6.91124 -8.89065
1173 1 -4.61842 6.09232 6.84587
1587 1 6.43358 -6.69175 19.2307
1845 1 -3.90369 6.43698 7.46989
1344 1 24.7103 -5.83953 6.62768
801 1 -4.00101 7.30605 -8.69437
1734 1 9.83623 20.3542 6.47041
1638 1 10.3523 21.323 19.4164
118 1 25.6786 -6.76977 6.20179
1406 1 26.9997 21.0646 7.43641
252 1 12.458 7.60813 5.29338
796 1 -14.5403 -21.1111 5.28503
480 1 14.1143 5.94546 3.58837
244 1 -12.5199 7.47776 5.43982
336 1 14.689 21.9953 19.7485
329 1 2.04069 22.5548 5.94918
1386 1 4.05599 -6.72776 20.8272
71 1 -9.74071 22.3569 -7.68387
839 1 3.6788 10.0357 19.7555
23 1 4.42579 8.0392 -6.92125
476 1 -7.90164 7.91649 -7.27174
934 1 5.06658 7.43424 7.19311
1989 1 -22.6402 7.88734 5.80989
1165 1 7.05301 -5.49313 -9.77667
1966 1 22.3995 -5.83155 4.99621
812 1 -8.11593 -4.00188 5.88748
571 1 7.0355 9.16571 -8.82164
1896 1 7.92295 -4.97881 18.9679
776 1 8.72516 8.95278 18.3188
1877 1 -2.77586 22.1242 18.8375
825 1 8.80407 10.2428 5.56833
1681 1 -30.9347 7.57009 7.03772
591 1 11.3321 -3.38547 4.9337
73 1 11.797 22.0557 -7.90131
1728 1 11.4207 7.45634 19.1537
1665 1 14.5663 6.40939 5.12614
218 1 12.4946 23.2402 5.74738
233 1 0.411519 9.07602 -8.07869
313 1 29.5431 23.8647 4.08709
1174 1 14.3984 -4.3038 17.4865
1113 1 1.67464 23.7852 19.3881
60 1 16.3036 10.3348 6.01325
1159 1 -13.1923 -16.6824 19.4637
241 1 -10.6162 9.17482 6.38554
1645 1 -7.686 -4.26428 -8.72614
699 1 2.2582 -2.42808 6.73895
1364 1 17.1123 -2.73831 -8.08508
1202 1 19.3816 9.04876 17.0311
14 1 18.605 -3.78671 6.75073
1833 1 5.10483 12.1541 18.4453
445 1 5.77863 10.4639 -8.48766
1177 1 18.7205 -4.82179 20.206
1312 1 6.12516 10.2048 20.3643
1591 1 8.78761 -2.67329 18.5969
76 1 8.63506 23.7508 4.54836
1307 1 8.4249 8.78716 6.73536
1047 1 20.7671 -4.8532 19.5863
289 1 23.3898 -5.23158 -22.652
86 1 36.9859 -3.21044 4.86348
1578 1 23.4521 -3.97934 5.6073
779 1 12.6228 -2.38966 -22.0519
1972 1 27.4805 -4.83814 18.1924
1175 1 13.9435 -4.62764 -6.3301
927 1 1.49124 9.3411 18.4479
322 1 1.58503 -2.74079 5.23368
1251 1 1.03514 11.5183 18.1419
1835 1 -11.6914 -2.41033 4.14572
61 1 1.22709 10.7597 6.61167
570 1 28.857 9.5029 7.71637
1461 1 1.32192 -1.97299 19.7414
213 1 2.24432 11.6569 -8.12673
963 1 -11.0798 10.6758 32.3447
1061 1 5.64009 -2.28486 4.52104
1081 1 18.4081 24.4848 -8.36421
74 1 -6.65746 13.0869 18.2399
1546 1 6.63552 -1.50674 19.8394
2041 1 23.6852 11.5219 18.9092
1796 1 -17.9434 11.6324 6.6224
1381 1 -16.816 -3.59892 17.7833
1125 1 11.8117 -3.01817 17.396
413 1 24.376 12.4755 6.31016
1847 1 9.40797 10.721 19.946
1008 1 12.7148 11.0337 4.06986
1606 1 -2.02838 12.4492 20.3385
786 1 27.5711 -15.4804 5.45908
740 1 0.0718079 10.9187 18.3092
1584 1 13.2747 10.1898 5.89805
12 1 -0.178684 12.7506 5.06314
578 1 -1.58851 13.8806 4.724
1226 1 28.2538 12.635 5.20346
1192 1 28.8128 12.2782 17.4242
828 1 1.9508 12.9624 5.63912
231 1 1.53451 27.4583 18.8171
254 1 17.6717 12.6263 -9.04031
913 1 17.6813 -1.31835 20.2724
1477 1 18.9905 13.0622 18.8293
1727 1 18.2156 -0.265062 5.98363
100 1 4.57837 1.18219 -7.44145
1761 1 4.72557 12.4192 3.84967
1478 1 6.19607 12.2673 32.2637
1880 1 -7.83107 -2.06407 -6.9408
1560 1 -7.57118 -1.58696 3.83821
1154 1 7.48328 26.0387 18.7566
1265 1 7.91584 12.9253 5.98829
31 1 19.3073 -2.06787 -8.0948
379 1 -6.07045 13.6074 5.2903
1854 1 35.983 -27.3609 -8.63025
1288 1 7.37511 13.8907 20.202
302 1 -4.15654 13.2787 -8.82498
504 1 36.2525 11.693 5.58294
858 1 -2.61082 13.5393 4.50919
604 1 24.6051 13.7502 20.4093
1515 1 10.0081 13.7895 6.26497
264 1 10.987 12.6295 3.79807
866 1 -1.70953 0.661962 5.78305
172 1 -0.822121 12.0325 4.45509
1522 1 11.8111 40.0564 4.41749
1738 1 0.293098 -1.22772 17.9201
961 1 1.3596 29.6285 4.93308
2048 1 14.1332 13.9547 20.6205
81 1 14.639 1.07261 5.58487
1096 1 13.29 1.21193 -6.70765
1062 1 2.24068 1.03784 5.0142
1625 1 2.55158 0.377824 7.26035
1316 1 -8.62505 0.344275 6.59402
182 1 16.8249 -14.7282 -19.6865
981 1 29.7892 15.0258 -7.73552
1076 1 -9.94356 0.764671 7.01146
804 1 4.5764 2.20762 19.2548
1306 1 -8.92518 14.8337 20.9973
25 1 -7.15571 -12.4019 -7.38253
1765 1 6.20206 15.3642 21.8544
861 1 6.20667 3.62055 -20.1707
869 1 -7.70463 -12.5729 21.0467
1263 1 7.3563 15.9688 20.7832
1720 1 23.2255 14.4978 5.52866
886 1 9.26542 14.5212 -7.13984
1440 1 7.82667 1.14554 6.57602
1855 1 22.1304 13.3328 6.91171
581 1 -5.06418 1.56353 19.6088
1891 1 -1.65379 0.573712 7.00392
1129 1 11.9065 -11.3983 -7.37256
1597 1 9.86273 1.79534 5.92542
1032 1 -0.633613 0.303492 6.62945
1028 1 0.11358 -12.8952 6.07263
1073 1 12.3407 15.2141 -6.43979
1938 1 2.46642 15.7504 18.8921
2023 1 -12.1654 2.02808 -7.73805
737 1 -11.3142 16.7874 32.837
749 1 2.62676 2.37148 6.21754
28 1 3.39899 1.30419 5.4318
765 1 2.30588 15.0682 20.7818
968 1 4.54011 13.8537 -6.03945
1467 1 19.0759 1.9156 21.2595
589 1 4.17247 15.7326 -5.90515
415 1 33.5949 15.8261 6.9632
90 1 7.09313 -8.31807 -7.48282
1232 1 8.74526 28.4911 18.649