ITEM: TIMESTEP
140000
ITEM: NUMBER OF ATOMS
2048
ITEM: BOX BOUNDS pp pp pp
0.0000000000000000e+00 1.3679807573413575e+01
0.0000000000000000e+00 1.3679807573413575e+01
0.0000000000000000e+00 1.3679807573413575e+01
ITEM: ATOMS id type xu yu zu
1481 1 0.0855661 13.9998 0.967887
1340 1 1.106 14.351 27.7694
855 1 2.22608 0.101609 14.4349
1658 1 2.98732 0.469512 13.8043
898 1 4.11631 14.1859 14.6776
461 1 -10.5161 14.4369 1.12853
954 1 5.1769 14.6521 -12.6807
1146 1 -8.54932 13.7159 14.9895
679 1 4.70484 14.1164 0.078735
745 1 -6.35924 0.92031 14.7159
1939 1 7.23397 0.154402 13.7951
1948 1 19.8289 14.2015 28.1672
105 1 8.58292 1.33088 13.7552
1597 1 8.31229 0.281193 0.677326
222 1 9.88167 14.431 0.629802
1335 1 10.8552 0.58797 14.9037
373 1 10.6452 1.31764 14.1619
616 1 11.3663 0.396175 0.402204
583 1 12.1838 0.969325 0.758224
522 1 -0.413828 14.9155 14.4634
237 1 -0.833558 0.143241 -12.3053
139 1 12.8133 13.8903 -13.5608
1547 1 14.3495 -11.0643 14.2709
1332 1 14.1559 1.58211 14.5688
1718 1 29.981 1.72117 14.5145
1768 1 1.55965 15.6108 14.317
1621 1 -11.4383 -10.7439 14.6107
140 1 17.4827 29.9568 0.836756
1696 1 18.163 2.06189 1.43594
977 1 17.2486 15.3962 1.25169
1763 1 -10.1357 1.58257 13.8412
134 1 4.72144 16.3392 -13.2078
1891 1 -8.20676 1.92754 1.19471
205 1 -8.67424 15.5085 0.0377114
1631 1 19.9456 2.51059 -12.8375
780 1 7.0074 1.85524 1.36827
1803 1 7.26759 -10.8864 15.0318
98 1 -7.21332 1.65249 0.228084
1269 1 -5.90712 15.68 14.3394
1640 1 22.4411 2.05265 1.0698
1974 1 23.4192 1.7746 14.6022
1454 1 10.5636 16.2154 14.2401
93 1 9.33776 29.6646 0.0720816
853 1 12.111 2.13373 0.474755
958 1 11.3812 2.47954 1.33686
586 1 10.885 15.2292 -12.1787
1178 1 13.6554 2.06673 13.7988
1574 1 -1.27514 2.41161 28.7863
435 1 -0.655038 16.3718 0.598971
1272 1 0.662357 3.74365 0.471437
1115 1 1.43918 -9.37057 14.6345
1967 1 15.3057 17.0014 0.117311
1545 1 2.23315 17.4579 15.1958
1026 1 -22.8816 3.16536 1.40501
1889 1 3.09037 17.3248 14.0035
1361 1 3.98133 -9.17196 0.898731
815 1 3.42048 3.31045 1.37721
1822 1 5.46448 3.47693 14.1229
873 1 4.97132 18.0851 0.438395
1499 1 20.8696 4.27584 13.927
249 1 6.61771 17.3281 0.799276
617 1 7.64921 3.9715 -12.6143
1204 1 22.2709 -9.29444 13.8308
1629 1 8.25853 3.05083 14.3994
1003 1 9.45862 16.7414 14.5295
891 1 24.143 17.1779 14.9224
980 1 9.9601 17.908 -13.1162
1295 1 10.5122 3.47903 13.7931
347 1 9.38131 4.21284 15.1738
418 1 12.1261 18.0924 28.4537
902 1 -15.3865 3.22149 0.739383
1554 1 24.7364 -9.47825 14.4881
849 1 13.2183 -9.79561 0.879766
1511 1 12.694 30.7483 0.0148977
1938 1 0.308727 5.5472 14.3243
1788 1 13.8308 18.2766 0.167824
1004 1 0.428525 18.3431 15.0341
1749 1 14.9255 18.8815 0.288801
1401 1 16.3281 -8.97266 14.1083
782 1 2.30364 6.04883 27.5222
580 1 3.01016 18.2777 1.50698
303 1 2.09658 5.35437 1.0831
1684 1 3.4995 5.42306 14.7123
960 1 17.0312 32.9542 27.3899
1738 1 4.65563 5.53361 14.2849
424 1 -7.96507 5.74902 0.922303
1449 1 4.96289 4.86862 1.48519
159 1 7.27604 18.6332 14.8566
2037 1 19.9651 18.3404 14.4734
475 1 6.89682 5.92252 14.8172
1683 1 6.82767 5.36137 13.8057
1016 1 21.6522 5.12363 13.9581
801 1 -4.90228 4.84376 0.970163
1123 1 -17.5157 5.12922 1.11142
785 1 24.2468 -8.32785 0.252623
918 1 11.5017 18.665 0.358785
803 1 12.3359 -7.79351 14.6312
1963 1 12.6665 18.3101 27.6076
931 1 13.1753 19.0098 1.12533
1805 1 27.5758 6.57549 1.18588
1320 1 1.12155 7.0604 1.17526
1462 1 1.27228 6.24286 -13.1073
996 1 0.587991 21.2195 14.0595
1351 1 -12.2707 20.8038 13.7351
145 1 2.17531 20.2163 14.9295
1315 1 -9.69307 6.35927 0.548592
429 1 16.9888 -6.28043 0.700746
771 1 17.7066 7.32433 15.1485
809 1 -10.294 -7.30089 1.33857
1761 1 5.17606 7.08375 14.1325
152 1 5.11678 7.1247 1.45639
1009 1 19.9398 6.8096 14.0555
1177 1 21.0662 7.03285 14.5946
1537 1 19.9536 -6.97526 15.1749
136 1 8.12211 6.23593 0.75079
455 1 -5.12073 7.0661 0.412417
1226 1 22.0514 7.54606 1.3038
646 1 -3.45227 6.12475 14.9119
129 1 24.2076 6.95886 0.645783
755 1 9.31568 6.10806 14.3739
536 1 9.37605 20.931 14.7439
920 1 11.1909 6.20255 0.598135
336 1 12.0614 20.527 14.0117
1245 1 11.6596 6.45678 15.1719
1279 1 -0.484536 33.8813 13.8868
1276 1 -0.711404 -6.78132 -12.4359
544 1 27.9635 -18.5306 0.540682
1314 1 0.50064 8.24361 1.50782
1653 1 1.43066 -5.4487 13.7589
14 1 15.2157 -4.92252 1.0287
1136 1 2.55746 8.98812 0.696993
138 1 15.7917 7.75904 -12.8609
1617 1 3.64444 -5.16629 28.3277
117 1 4.5104 -5.68458 -12.9922
1395 1 16.7648 22.002 13.787
1491 1 19.2607 8.2941 28.1241
496 1 7.58306 8.06324 28.2872
232 1 6.50098 21.3915 0.973874
1571 1 6.68785 -5.01204 27.8273
981 1 34.3753 7.73489 -13.6462
2040 1 8.15098 8.88821 14.4446
1239 1 35.9642 8.08571 14.0937
369 1 10.4743 8.34895 14.3943
1694 1 9.65491 -4.86521 15.0047
77 1 10.1739 -5.88117 1.51941
611 1 -4.04939 7.75439 0.12354
264 1 11.4755 7.61516 0.753682
135 1 -15.8598 22.1581 28.8099
1593 1 11.5927 8.65113 27.7784
293 1 -0.240483 8.03781 14.5366
384 1 -1.2226 8.37275 0.78929
115 1 13.4698 9.04592 15.0049
35 1 -0.663656 -18.4169 0.122203
694 1 1.36492 10.6205 1.1177
965 1 0.19636 10.5776 1.23215
367 1 15.4644 9.6924 0.58788
1347 1 2.91866 9.9515 1.13222
1578 1 17.7218 -3.54152 1.11922
1976 1 17.7792 9.19581 14.0446
1437 1 18.5864 -4.43837 1.17064
78 1 6.01653 -3.25215 -13.3806
1957 1 5.19022 -3.53085 0.986667
513 1 19.747 -17.805 0.85486
863 1 5.22047 9.25639 0.201771
1907 1 20.889 23.1602 0.902755
1645 1 -6.8995 -3.26651 -12.4725
1946 1 35.2721 10.1586 1.50655
2027 1 7.6888 -3.12873 0.39894
1632 1 22.7695 -3.29988 0.588407
1031 1 -3.91122 -3.66441 -12.3196
1265 1 10.2118 23.4133 14.166
1425 1 9.283 9.14229 0.461796
1691 1 -3.02001 9.4817 1.30811
1355 1 -2.20867 -3.98146 27.6951
843 1 39.2322 10.3409 14.8047
1702 1 -16.4467 -3.06991 14.6105
1659 1 -0.0410478 9.85928 0.300307
1186 1 -1.17575 9.90288 0.114111
1101 1 12.9465 -3.591 14.7605
1959 1 -1.4703 22.9911 1.20905
1260 1 0.783182 12.0363 14.2822
857 1 14.1131 -2.6484 13.813
284 1 15.4463 -15.4054 14.684
636 1 2.43454 10.8766 14.5521
1585 1 15.9111 11.6902 13.7544
1457 1 3.44658 25.7516 14.6851
748 1 -10.1198 11.0325 0.885124
202 1 4.52051 -1.78531 1.11664
549 1 -8.04553 -1.74151 0.163885
1069 1 4.77176 -2.49124 14.1357
92 1 19.3396 11.3857 -12.5635
1792 1 4.68268 24.6011 15.0967
546 1 -6.87199 -2.4304 13.6801
1927 1 6.67964 11.7474 14.9969
576 1 8.05618 -2.14112 1.03142
929 1 -4.6945 -1.81081 1.29301
1014 1 10.0379 -2.70389 1.18263
1546 1 10.5638 -1.57493 14.5588
1300 1 9.53554 -1.69911 13.9375
485 1 -1.5699 -2.76269 0.146569
1376 1 -2.39822 -2.15162 0.424483
784 1 13.0938 -2.49185 -13.3979
261 1 -1.27885 11.9645 0.827338
721 1 13.6007 25.2429 14.7757
346 1 0.858151 -14.32 -12.659
644 1 -13.3706 -0.312263 13.7515
1789 1 1.43265 13.0368 13.7001
221 1 15.5353 12.9405 1.25753
1572 1 -10.7799 12.728 13.8276
1970 1 -24.3879 -0.554523 28.4815
280 1 4.12047 12.3312 0.104184
9 1 17.7334 13.1807 1.06933
885 1 5.97688 12.9221 1.14917
1438 1 18.8351 26.4719 0.304835
1912 1 6.91397 -0.146066 14.7396
698 1 47.5678 26.5603 0.164447
959 1 7.82999 26.7885 0.376173
1196 1 -6.04603 12.5389 1.29479
1431 1 9.1132 13.0259 15.1952
385 1 -5.16314 25.9369 14.1465
545 1 -4.7239 13.1474 0.234971
1972 1 23.7161 -0.466268 14.5307
1040 1 10.619 -0.297865 0.0351545
1648 1 10.8918 -0.579123 15.163
932 1 -2.10714 12.2975 1.35294
2036 1 -2.29142 12.7699 27.7988
702 1 25.9188 26.8005 0.910613
1167 1 -13.8809 -0.642649 0.976643
150 1 1.25311 13.8421 -11.8261
1153 1 14.423 -12.4657 1.98473
348 1 0.0273904 14.0362 2.05374
1154 1 2.7663 15.0678 15.5695
1798 1 1.71848 -12.7165 15.2424
557 1 15.5383 1.38539 -11.0768
1455 1 2.29827 14.0724 2.22541
1113 1 3.18528 27.9224 16.2071
357 1 17.9417 14.8187 2.024
706 1 4.02548 13.7155 -11.6565
1056 1 4.92555 0.298588 16.1149
982 1 5.98612 14.0213 2.8528
1987 1 -8.32072 15.0011 15.8152
1806 1 6.26247 -13.0294 1.93364
1435 1 -6.22612 14.745 2.05305
1225 1 7.06366 13.9077 2.55924
1530 1 7.08928 28.6599 3.02692
400 1 -5.31203 14.3682 16.283
1901 1 8.40979 14.8672 28.9348
1268 1 7.88074 0.009964 -11.7923
696 1 9.02604 0.331892 1.63782
880 1 10.5599 13.9123 -10.8262
1848 1 9.84951 14.5079 1.66354
574 1 9.47212 0.865332 2.7994
508 1 11.7884 14.3428 15.4196
413 1 24.6807 1.23432 2.41207
2024 1 -0.926911 1.46296 15.3136
1379 1 -0.1655 1.21589 2.69822
333 1 26.2517 0.634347 2.3743
1298 1 0.101544 -11.5555 15.8097
315 1 14.6682 16.3791 1.71185
1057 1 1.02257 -11.6925 16.2939
1297 1 1.86724 2.05325 1.77699
111 1 2.99483 15.3055 -10.7922
1528 1 2.95799 16.136 15.4742
1169 1 16.535 16.3706 3.0115
1573 1 3.77349 2.19426 -11.3246
1477 1 19.1741 16.6943 15.2626
520 1 -8.84765 -11.5736 2.43473
1764 1 -7.84735 16.0418 -10.8877
1090 1 -6.09191 2.25914 15.8124
1540 1 -7.31133 2.22075 15.7113
1663 1 20.5988 2.46326 -10.7626
677 1 8.58255 16.3814 15.5374
1825 1 -18.9243 1.82611 2.55689
81 1 8.93529 2.86231 2.96269
1890 1 7.94368 -10.7616 2.8649
1083 1 22.8851 1.68747 1.94438
683 1 10.0435 2.34375 1.76283
1229 1 10.0354 2.66139 2.8268
1281 1 -3.55901 -12.1145 2.54993
409 1 39.1395 1.89953 2.09045
2041 1 10.9103 2.57836 15.9066
122 1 11.9328 16.5175 -11.12
1733 1 -0.980824 29.2958 2.65316
317 1 -0.37693 -10.6468 2.16636
1675 1 14.1408 17.3737 15.2227
654 1 1.2738 31.341 -11.7852
1596 1 14.3205 3.20361 2.67608
1745 1 2.11402 16.7206 15.9359
453 1 -12.1198 17.5084 2.82402
358 1 2.90896 4.13379 16.0905
253 1 -10.0688 3.35285 2.39846
1604 1 4.00032 17.9776 15.7545
651 1 4.72092 16.8851 -11.0754
1508 1 5.39755 17.6384 1.9022
1407 1 4.90866 4.49015 30.1882
1441 1 -7.61815 -10.3422 -11.2944
836 1 20.3467 4.09117 1.65765
565 1 7.13628 16.9047 2.25734
531 1 7.58726 4.45846 2.59865
602 1 6.37161 4.35338 2.71743
1665 1 8.34508 4.00446 1.77541
614 1 8.62117 4.11271 16.4377
71 1 -3.43956 17.6482 2.13778
1807 1 -4.26476 -10.3804 15.9104
630 1 11.05 -10.029 16.3514
503 1 -2.30948 17.3029 1.66007
1996 1 -1.75647 18.1697 15.7157
563 1 -0.839225 3.98638 3.01092
1141 1 12.4978 17.1179 1.60115
266 1 -0.0186289 -9.38413 15.9482
1821 1 1.28454 -7.61106 28.9532
444 1 -12.6587 -8.56329 2.1003
1884 1 13.7649 18.9075 16.2944
521 1 15.7448 4.72697 1.97743
852 1 -25.675 5.14458 2.86689
2010 1 16.54 18.8075 2.63309
1124 1 3.88208 5.44468 29.7311
307 1 4.86882 5.65856 16.4342
1029 1 5.9244 -8.46117 15.8027
460 1 4.93686 -7.7207 15.4942
1810 1 6.94068 5.09891 15.8418
108 1 7.82311 5.60978 15.295
2030 1 8.64406 -8.70569 15.7762
1232 1 8.38728 19.6328 16.1024
404 1 9.61887 5.80833 15.7443
1960 1 -4.18841 18.3655 2.55786
235 1 -3.32002 18.8164 -11.6519
584 1 10.7969 19.7294 -11.3789
956 1 -2.17059 19.0903 1.57223
744 1 11.2483 5.28006 16.3902
741 1 12.2154 19.4993 15.8208
53 1 26.0094 4.86097 16.6226
1209 1 -0.788799 5.06512 2.01256
525 1 1.06183 6.11509 2.65103
1830 1 14.3705 -6.7639 15.7336
1555 1 15.8164 -7.04906 2.82284
806 1 3.11584 6.46413 2.54454
1904 1 4.03162 20.1611 15.8089
515 1 3.51619 -6.18486 15.9826
196 1 -9.02363 7.42949 -11.3576
1879 1 19.1622 6.64853 16.106
607 1 33.3733 7.58525 2.13861
50 1 7.57045 -6.99046 2.20682
655 1 6.50631 20.0115 -11.3144
1534 1 -4.91431 20.2955 1.78501
75 1 -5.27853 7.42017 2.52088
125 1 -3.90577 6.8754 -11.7784
368 1 9.19987 6.81012 2.79041
703 1 10.3087 -6.93484 2.97481
1698 1 -2.19933 6.63765 16.4522
458 1 -2.69753 20.8287 1.58469
1787 1 11.0582 7.49503 2.92831
1853 1 12.4025 6.8065 29.7199
540 1 -0.25003 7.30174 2.04835
1162 1 13.4834 6.10494 15.8336
1926 1 -13.1366 8.0334 16.1602
1369 1 1.02815 9.01596 2.176
388 1 2.70187 21.6728 15.4764
1459 1 1.57101 -5.7003 29.1435
1385 1 2.09136 9.05203 -11.6604
1434 1 15.8911 -5.77478 2.84008
1002 1 17.9329 22.1338 15.4408
917 1 17.0072 -5.05282 2.48064
1887 1 18.9616 8.14961 15.4722
1307 1 4.96815 9.06898 2.34291
839 1 5.4656 7.62714 16.6881
1223 1 4.57322 -5.40633 3.01281
147 1 33.5393 8.675 15.2085
518 1 7.25187 -5.89007 2.01853
162 1 7.15729 8.75028 -11.1176
198 1 -7.00044 21.493 2.96869
258 1 6.1318 8.707 -10.976
1064 1 8.95427 8.32474 2.95402
760 1 8.35415 8.61083 15.3763
971 1 -3.66528 -5.95302 2.54859
1682 1 23.4273 8.66974 29.7214
332 1 -1.76738 7.71458 2.12924
1630 1 24.6229 -5.19779 2.67939
1350 1 -14.4697 8.16755 15.3931
648 1 13.5484 -4.83106 2.49494
811 1 12.2672 -18.7069 2.37692
606 1 26.5277 7.79606 2.89272
930 1 -12.8118 23.6705 15.4379
1916 1 0.847273 -3.5034 16.5054
973 1 1.76326 -3.80301 16.3362
1373 1 2.75464 -3.86517 29.7483
484 1 3.57512 9.38314 1.69683
935 1 16.8903 10.6157 1.85415
666 1 3.81946 10.0042 2.83883
1091 1 18.3875 9.96212 15.6148
1626 1 19.3445 -17.6559 16.3922
1442 1 5.78931 10.3012 15.3775
1838 1 6.56978 9.69369 -11.468
248 1 22.6051 23.1615 1.64302
1664 1 21.8261 23.2859 -11.3056
1301 1 8.9861 -4.18613 2.98897
1975 1 21.8345 24.172 2.96299
397 1 10.1974 9.70082 15.9335
1417 1 10.992 -17.0231 15.6306
1978 1 11.4554 -4.30758 15.6046
43 1 11.9801 -3.28881 16.1345
682 1 -1.89555 9.38562 2.91386
933 1 -0.793956 9.69309 -11.6737
1566 1 13.6236 -3.16927 29.9241
1740 1 0.79966 11.3797 15.2567
1652 1 -12.1945 -2.88728 2.31327
1690 1 0.861981 11.6323 2.68066
781 1 16.1348 -15.8473 1.806
1872 1 -11.2656 10.7464 2.83951
231 1 1.96467 25.3624 16.5048
426 1 4.31225 24.4855 2.44418
240 1 17.3903 11.5479 15.7788
1202 1 18.642 11.7004 15.9098
692 1 7.16856 -2.93625 2.16048
1493 1 20.048 11.3914 16.1337
669 1 -4.7991 -16.55 15.2686
1744 1 -5.47702 11.4322 15.9625
366 1 -4.53205 10.801 2.93043
685 1 -3.64917 10.7955 2.51887
1152 1 9.24647 11.9053 16.0425
637 1 -2.96253 -1.86297 2.08402
1719 1 11.81 11.4344 -11.4788
1240 1 11.0381 -2.63082 16.605
10 1 12.6658 11.1026 -12.0861
454 1 -1.26279 24.8394 2.91242
27 1 -0.208494 -2.0813 -11.5141
1605 1 12.6075 12.1168 -11.5326
1634 1 0.427838 12.3644 15.345
1445 1 0.871021 12.9678 15.9973
1977 1 1.39423 12.2355 29.347
1080 1 1.97767 -0.764085 16.3372
170 1 16.6851 -0.43074 -11.4024
724 1 2.98448 12.2748 16.4878
468 1 3.85671 12.5236 -11.8126
1112 1 -9.19335 -0.887882 2.87351
438 1 19.5958 12.2126 1.92942
773 1 4.9316 -0.91776 1.84454
1410 1 5.5603 -0.597083 2.68916
1769 1 7.15335 25.94 15.8642
1396 1 20.2106 13.205 29.383
1282 1 6.67637 -14.417 -10.6434
1779 1 -19.1448 39.751 15.964
1708 1 -4.83819 13.3322 2.46182
1544 1 9.83437 -1.34551 15.3073
351 1 10.0006 -0.338087 15.8419
1622 1 -3.60449 12.3968 16.3695
1861 1 11.1483 13.022 16.2689
1765 1 -1.53821 13.2089 15.7049
2042 1 13.2224 26.6344 15.7571
1230 1 -0.300795 13.5643 16.463
999 1 0.684413 13.7637 3.12264
828 1 0.879134 14.7732 3.07138
569 1 14.792 0.679183 4.21643
1753 1 0.071173 14.9247 3.70719
1261 1 2.87606 14.6399 3.5874
1589 1 2.91853 1.44656 4.46729
436 1 -11.7206 14.2188 3.17375
1911 1 29.5018 0.58277 17.965
2008 1 3.23399 0.213711 4.1904
1790 1 4.43514 0.462261 4.27091
1526 1 -9.44188 1.49181 16.7631
1305 1 -9.81148 1.25668 4.09788
195 1 -9.79676 0.501096 17.0512
578 1 5.43693 15.0798 4.27319
739 1 5.23846 28.5684 3.3004
1809 1 5.13129 -13.4275 3.38626
532 1 20.0997 0.820577 4.05431
294 1 -6.11585 14.5607 17.7616
1343 1 8.94074 13.7868 3.46855
160 1 8.73485 1.15858 3.64879
379 1 -4.26961 15.1842 4.35719
107 1 9.82166 0.73963 3.80558
1357 1 -4.44489 14.0185 4.55958
1643 1 -2.65244 -12.5214 3.60746
133 1 -1.93193 14.0933 3.08081
713 1 13.6434 27.4681 3.88568
121 1 12.1989 14.0268 3.93651
1507 1 -0.875344 14.7935 17.1075
45 1 13.0262 14.3714 -9.23345
1267 1 1.31128 16.5689 -9.6291
704 1 13.7722 2.35222 3.29874
4 1 -12.6396 15.5763 -9.66416
1553 1 0.0895849 2.37726 4.43645
767 1 1.86851 16.0428 3.07621
1140 1 1.99416 1.58893 3.78325
2028 1 2.25199 16.2366 4.41275
1550 1 17.7812 2.71964 3.62102
1283 1 16.9325 2.32447 4.05171
1560 1 -8.00871 2.7202 4.15478
730 1 18.633 29.5865 -10.1533
991 1 20.4221 15.5564 -9.77189
612 1 -7.05859 2.94798 4.01361
236 1 7.83942 1.96349 3.5875
879 1 7.64771 2.99732 3.97427
1739 1 8.7188 -11.2724 4.02919
328 1 -3.86179 2.79347 17.5286
352 1 24.0555 1.87672 -9.68669
1157 1 9.45901 1.85172 3.36235
1249 1 11.88 15.8989 3.41809
974 1 -2.72176 15.7865 3.06693
680 1 -2.80677 2.74725 3.92128
305 1 11.4841 1.92587 -9.30017
396 1 12.0404 16.5413 -9.34714
2034 1 12.7903 29.4501 3.8648
1429 1 12.8964 2.8345 3.08029
729 1 14.2461 4.48616 16.7605
1709 1 14.9505 4.2916 -9.91191
1969 1 13.959 17.3491 17.3625
1646 1 2.22203 -10.464 -10.0994
1453 1 -11.3728 17.8939 3.50579
1826 1 4.13396 17.8132 17.0953
1032 1 -10.405 3.46712 3.47189
1818 1 3.57701 4.41003 4.20296
1176 1 17.9413 -10.1941 18.0211
1482 1 -8.13289 3.34691 3.30121
804 1 5.10666 4.18563 17.4796
102 1 6.96107 17.4745 -10.2701
1089 1 6.11736 3.83759 17.9001
446 1 20.6512 4.41452 -9.33679
1098 1 9.019 3.5692 3.71071
913 1 21.7483 3.9767 17.5033
1676 1 -3.8389 3.70629 16.8603
1619 1 -3.6153 4.27682 4.39008
405 1 -2.96816 17.4181 -9.93863
1847 1 11.7244 4.42523 17.4541
1858 1 11.7564 3.29693 3.4853
969 1 -0.527576 17.3577 4.45548
1285 1 14.5193 5.26883 3.64816
156 1 27.6951 18.3252 4.27172
613 1 2.44419 -7.92874 -10.3221
100 1 1.94019 5.09957 -9.7213
714 1 -9.30175 18.9345 17.3155
722 1 16.9964 18.955 17.3141
1287 1 -7.95459 5.04836 3.96216
1756 1 20.7163 18.769 3.22106
912 1 6.15353 19.3798 -10.5248
1412 1 6.42513 19.2724 17.9326
297 1 8.35802 -8.58302 3.30785
1854 1 36.1423 -21.7209 -9.26917
254 1 21.4553 5.55948 -9.53687
1495 1 9.27956 18.3497 -10.1289
362 1 10.2266 -8.00956 3.0595
832 1 22.8582 19.3177 3.11457
1692 1 24.1973 18.3043 16.7737
299 1 11.0958 5.42552 -23.6326
1990 1 12.1772 5.93644 3.13484
1840 1 -0.754807 4.60073 4.06472
539 1 13.2161 5.55609 -10.1229
529 1 -15.1597 5.37198 -9.48431
772 1 0.151782 7.20109 16.8046
350 1 28.689 -6.28911 3.0603
1170 1 14.0531 6.11753 3.50145
1497 1 14.5131 7.0624 4.01187
1669 1 -12.1652 6.28434 3.66087
84 1 15.7146 -6.45067 3.76223
550 1 3.01479 -6.94123 17.3271
1877 1 2.31621 20.0833 17.9415
1543 1 -9.86802 -7.51127 3.25271
700 1 17.6923 7.41205 3.93027
1703 1 -9.01319 -6.86593 3.24893
1181 1 5.38659 6.11285 17.2384
1940 1 18.5835 6.86007 4.39141
1363 1 -7.6323 -7.03793 4.39187
1027 1 7.05581 6.43305 3.87111
1309 1 6.1861 -6.7396 17.0371
949 1 -6.08762 7.30791 3.32389
976 1 -5.18921 6.29973 -10.3039
695 1 22.7589 6.81018 4.52526
577 1 8.80957 21.0727 3.54198
1773 1 8.02555 -7.089 4.18838
1063 1 9.54703 6.20906 3.95325
712 1 9.92992 7.19967 3.78028
325 1 12.0901 -6.31154 3.34889
2021 1 -16.6547 6.3687 17.5756
1732 1 -1.97166 20.1887 3.8577
1392 1 11.1131 7.48493 17.6275
860 1 12.8974 6.59585 3.37069
428 1 -1.06532 20.3107 4.51589
763 1 27.1611 -6.59046 -9.43105
807 1 15.099 8.90059 16.7785
527 1 13.7912 -5.35673 3.46585
776 1 1.41857 8.18965 17.5871
684 1 14.4846 22.6744 4.22788
1228 1 0.240735 8.25199 4.51554
1704 1 2.63651 -5.0928 17.5308
131 1 3.15306 7.78121 -10.4524
1736 1 3.84195 22.1925 17.4345
1360 1 5.84809 -5.02377 3.73747
300 1 -8.65688 7.97257 -9.72433
3 1 6.97322 -5.56534 3.8612
609 1 6.10546 -6.01305 -9.64786
192 1 21.2707 9.04048 -9.49733
1394 1 7.94651 -5.42655 30.7207
73 1 7.99323 21.3078 -9.36436
1688 1 8.43838 8.55605 17.963
1857 1 9.47321 -5.1757 17.4784
217 1 24.0353 21.7959 3.52332
1163 1 -1.88055 8.27519 -10.3573
1780 1 12.0303 8.60578 4.25697
1701 1 -0.772392 21.7419 3.98689
1886 1 12.7169 22.5222 17.0524
993 1 0.130613 9.53862 -10.3392
1197 1 13.7315 23.574 4.36604
153 1 1.19252 9.79456 -10.0066
866 1 -12.2101 -3.3001 4.47748
742 1 2.47182 9.68679 -10.2808
1846 1 2.73801 10.4882 3.98486
1699 1 1.98661 23.1212 -9.41444
1403 1 3.80259 9.82449 4.05193
1348 1 3.0508 -4.32562 4.50777
774 1 18.4991 -3.62968 16.8378
825 1 19.3919 9.92578 3.71252
1145 1 18.516 9.28514 3.82442
419 1 6.56805 9.41244 3.36759
74 1 -6.92393 10.5852 16.8965
1058 1 7.52347 10.2917 17.5854
1679 1 20.4237 9.76865 18.1045
1402 1 22.2542 -3.17939 17.5869
699 1 8.26936 -4.23351 3.71774
1142 1 -3.92431 -3.56604 3.25895
1712 1 -3.45312 9.16937 3.31598
1581 1 10.301 9.85457 4.16094
1569 1 9.17595 -4.0368 18.0565
1208 1 24.9572 9.15283 17.4168
1639 1 24.5556 10.0093 16.8929
1980 1 12.7828 10.0718 16.9844
16 1 12.4539 9.70188 17.9644
711 1 0.631755 10.9226 4.0781
310 1 0.61841 11.8992 3.91349
759 1 0.0114351 11.3826 16.8949
1203 1 1.65926 11.14 3.65466
1624 1 2.71388 -2.15509 17.5829
1829 1 4.43103 -2.64846 3.82048
1724 1 17.1558 24.616 16.8995
1139 1 3.5858 -2.54091 4.52513
1213 1 3.85898 11.8948 16.9546
168 1 5.42501 -2.28509 4.46128
924 1 5.56775 -2.66091 16.7961
900 1 4.86237 -1.75515 16.9309
627 1 6.90885 11.1241 4.10677
664 1 6.48409 25.5785 -10.1717
488 1 -6.18332 11.4101 3.18364
1467 1 22.2882 -1.75581 17.136
1801 1 -5.69031 11.3574 4.32668
886 1 9.11337 11.7712 -9.19969
1706 1 -17.8152 10.6663 4.24647
167 1 -3.57199 11.1512 3.54252
813 1 -15.6114 10.7741 17.2699
1306 1 -2.63784 12.1491 16.8183
1730 1 -2.72409 -2.93474 18.0606
826 1 11.632 -1.83091 3.92662
1129 1 12.839 -2.76918 -9.76014
69 1 -1.03491 -1.77796 -9.25414
1771 1 13.9822 12.4998 -10.6081
837 1 0.757945 -0.673476 4.19576
1210 1 16.3706 13.3206 3.27212
1559 1 1.82904 -1.51327 17.6959
448 1 16.2013 -0.4796 -9.43445
1302 1 17.3103 12.2821 4.19853
371 1 -10.0409 13.0985 3.27403
1678 1 -9.39423 -0.557788 4.08039
349 1 19.7184 -0.433422 17.4206
1503 1 32.5932 13.4537 18.0806
415 1 32.3409 12.2909 4.16757
1366 1 20.5621 12.7302 4.07966
1489 1 20.8008 -0.0300428 3.63874
324 1 -5.98467 -1.25266 -10.2684
1601 1 -5.45982 -1.29557 4.36085
618 1 7.93735 13.4537 3.064
947 1 21.9862 13.5496 4.30386
412 1 24.0317 -0.31986 -9.9069
1561 1 -3.73337 12.2724 17.4455
1784 1 9.21124 26.4965 3.37206
822 1 -15.7377 12.9161 3.68422
1687 1 -2.47973 13.6482 31.633
399 1 -16.6074 12.3652 -9.36209
875 1 12.5492 -0.417592 16.8838
1242 1 12.4085 -1.46317 16.9934
1770 1 13.3239 -0.921302 17.5061
1312 1 12.5436 13.1641 17.9981
1905 1 28.5151 14.5379 18.9465
736 1 0.369413 14.9527 -9.04373
1796 1 -13.416 13.9419 4.804
1237 1 15.9654 27.8309 5.35184
1086 1 2.75847 1.21758 6.06974
1171 1 17.0573 0.853218 5.15024
340 1 3.82209 13.9669 5.98746
821 1 4.7061 13.965 5.39524
762 1 19.0009 28.4066 -7.84255
992 1 18.2527 1.20314 18.5761
1125 1 6.12197 0.424855 18.6926
363 1 7.1672 0.487799 5.75033
1316 1 -6.5739 0.161953 4.69797
868 1 -6.8389 1.35977 18.6754
1451 1 8.13764 0.530962 5.30712
174 1 9.08962 14.7932 18.9986
657 1 -3.50139 15.1754 5.09434
341 1 -3.41911 0.238583 -8.501
1813 1 -2.88992 0.784347 4.56967
1103 1 25.8355 0.0628451 5.1578
751 1 11.1885 15.1533 5.41242
575 1 11.1538 0.322227 19.2402
1334 1 11.9492 0.984932 18.4876
1121 1 12.0166 0.957242 5.86649
2015 1 26.7749 14.1603 5.56137
888 1 28.2634 -11.7017 5.15528
1193 1 13.738 15.4593 19.2515
2026 1 0.123675 2.92357 19.0156
1486 1 15.0838 16.4463 19.0011
207 1 16.4474 -11.2166 5.24415
114 1 1.9622 15.2347 -8.83178
1609 1 1.93764 1.99018 19.5537
516 1 17.442 -11.0167 -8.8936
1496 1 17.2651 1.89257 19.1951
1823 1 4.68099 29.6374 4.68291
1869 1 5.91529 29.1494 18.9133
829 1 18.4344 15.5472 5.58652
668 1 6.59425 16.1909 5.09395
1327 1 -6.26773 2.2242 4.61421
1472 1 6.26211 2.58793 6.05383
18 1 -6.33707 15.7558 -7.92872
175 1 8.42838 1.629 4.61742
1164 1 8.03691 2.78441 5.36216
921 1 8.40585 1.71163 5.66037
1729 1 9.28906 15.8807 32.708
1480 1 -3.1612 29.7714 18.5368
1046 1 -1.58097 1.99733 5.58613
1522 1 12.9237 29.2739 4.92685
718 1 -0.991523 16.586 18.8961
979 1 14.3094 17.3727 18.379
60 1 15.1252 3.80092 5.49594
394 1 3.03529 3.46056 4.84276
1349 1 -11.4126 3.37627 19.3015
754 1 15.6658 17.38 -9.04809
1711 1 18.2211 16.8228 5.37084
1492 1 30.672 -22.9512 19.3836
633 1 17.0814 16.7406 -7.65273
296 1 5.07333 3.79234 -8.81385
1849 1 5.76608 3.05066 5.10917
1038 1 5.30638 -10.1256 -7.77085
2018 1 6.19331 17.6951 19.1286
615 1 7.17729 3.41898 4.81073
118 1 20.8627 4.34515 5.6168
440 1 20.7703 3.24076 5.75636
433 1 -4.70062 17.9591 4.62648
1075 1 7.95508 18.2314 4.72051
34 1 -5.30943 17.0322 4.56514
623 1 22.0173 -9.84127 5.7059
466 1 9.46855 3.11095 4.85863
1576 1 -4.01118 4.39213 5.38703
1416 1 10.245 3.5173 5.3337
1286 1 9.49581 -10.465 19.7028
761 1 11.2999 3.08569 5.47162
626 1 -2.60271 3.68123 -8.9984
124 1 11.5082 4.12492 -8.01499
865 1 -1.49804 17.6635 4.60795
1716 1 12.4979 -9.46312 5.50812
512 1 13.6282 17.9808 5.44859
130 1 -0.37864 3.49402 -7.63158
469 1 1.37558 18.305 4.73233
459 1 14.4061 5.5214 18.3264
376 1 14.1144 5.76447 19.2712
566 1 14.593 -8.87478 -8.06449
478 1 16.1688 18.2851 4.66938
1452 1 15.484 5.5591 4.83338
676 1 2.08687 18.4537 5.67226
1814 1 3.51181 19.1301 18.558
1106 1 -9.26849 6.02931 4.8002
128 1 17.8657 5.12776 5.64942
1356 1 19.0735 -7.90496 4.64302
381 1 4.88592 4.75519 -9.04036
259 1 -8.73651 33.1814 -7.83948
1104 1 18.8631 4.79874 -7.93769
403 1 7.19902 18.8788 5.03231
1915 1 19.7745 4.87742 4.91515
1914 1 20.0149 5.74627 5.51534
155 1 22.3576 4.8366 -8.10296
844 1 8.08403 -7.65697 5.14318
1473 1 23.2733 32.4803 4.65848
242 1 9.92504 5.6952 -7.6985
1042 1 10.7371 -8.83528 5.66488
1504 1 24.5311 6.01189 5.88522
904 1 -2.41658 18.4723 4.58361
1871 1 -2.30417 -7.71665 18.3769
19 1 -1.85905 5.14886 5.47636
1077 1 13.4671 -7.6185 4.63275
1625 1 -0.805426 5.2104 5.00503
997 1 -1.03692 33.4018 5.55143
1236 1 0.0654728 20.4541 5.40378
1608 1 -12.5934 -6.89732 19.6655
955 1 1.40642 6.53338 -8.92491
560 1 1.79597 21.1769 18.3991
1386 1 2.81216 -6.40656 18.3926
643 1 -11.4983 -7.01817 5.48341
1743 1 4.00095 21.2256 4.97698
1430 1 16.7392 7.35878 -7.97494
1828 1 3.54494 20.12 4.65147
1542 1 4.14959 6.7115 5.55573
1233 1 16.8297 -7.40168 -7.78057
1049 1 -7.99592 -7.00613 5.58618
1127 1 -6.97682 7.33227 4.90264
990 1 20.7163 6.34702 -8.74129
1579 1 20.1884 7.19368 5.8777
25 1 -6.2868 -7.38123 -7.67889
554 1 21.435 -6.56974 5.29906
1450 1 9.07188 6.99868 5.84188
1128 1 9.99745 -6.60532 19.0821
1611 1 10.1605 -7.41373 18.5517
417 1 -4.55983 19.8127 5.32079
998 1 -1.7049 21.2072 4.57353
402 1 24.5529 7.04623 18.5189
597 1 11.7978 6.66222 5.36686
1105 1 -0.976165 -6.51038 -8.215
2031 1 13.8008 7.73881 -7.97288
946 1 0.465641 8.90636 5.50717
838 1 1.17086 -5.69722 -8.07883
489 1 -11.4801 8.47671 4.8872
1158 1 30.3756 8.74229 5.47752
846 1 15.9329 -5.7202 5.88798
164 1 1.75009 -4.60467 5.92232
1051 1 30.5719 8.1749 4.57396
1322 1 -9.26754 8.59979 4.56805
1278 1 5.17097 21.5801 5.03596
309 1 6.01018 -5.20208 5.54525
1293 1 18.5294 22.5104 5.73292
1982 1 20.1365 8.7012 18.3118
1755 1 9.00161 35.0702 -8.88593
1816 1 21.3815 8.37048 4.9824
1007 1 -5.34691 8.82428 -7.88442
1331 1 -3.19758 -5.52903 5.69324
1888 1 9.253 8.73796 4.9874
1344 1 23.8417 -4.5617 5.18674
1408 1 10.0828 8.0204 18.4317
1767 1 9.31286 21.646 19.4464
690 1 11.7927 8.90461 -8.26858
1697 1 -2.70285 8.68148 4.66682
1487 1 -2.17098 7.89556 19.0239
483 1 -0.52576 8.96993 4.75618
48 1 -1.07984 8.10647 5.09934
243 1 0.215507 -3.78723 -8.35613
389 1 14.8946 -4.04363 5.20915
1662 1 1.8938 10.5483 5.4471
1842 1 2.31418 9.57466 18.8847
251 1 30.3317 -3.10962 -7.73359
193 1 -10.2803 10.1303 -8.59797
1997 1 -9.36119 9.44958 18.8061
1677 1 -9.25241 24.2049 5.0599
1512 1 5.45237 -3.64667 19.5457
1012 1 5.31073 9.42596 4.76448
491 1 -8.1273 24.0665 -8.81187
1023 1 19.8436 23.2777 -8.29205
211 1 -6.5823 9.1458 -8.37008
675 1 7.06456 24.0864 -21.7219
1656 1 8.22807 -4.33205 4.92909
1365 1 8.01577 9.90713 5.86286
943 1 -5.73003 -3.27143 -8.89889
1866 1 9.14807 -17.5079 19.1236
473 1 10.1958 -3.4347 -22.1495
2035 1 -2.62489 9.73611 5.85004
37 1 -2.46367 9.83376 -8.88048
430 1 -1.98065 24.162 19.2311
1093 1 12.7668 -4.19404 19.3499
1436 1 27.0139 10.5902 33.2945
370 1 12.7981 23.9447 5.04429
334 1 0.80837 10.7438 5.17681
1591 1 1.4087 -2.11959 5.44025
277 1 0.362003 11.9283 5.11147
1001 1 0.247759 11.4026 5.97906
374 1 16.3667 11.0277 -8.71957
1945 1 16.0597 -2.04823 5.84929
1875 1 31.2068 -2.44641 5.63005
661 1 4.42288 25.4775 4.89114
1198 1 5.14834 25.0478 5.5321
470 1 7.15536 -2.39801 -8.6055
382 1 6.1908 -2.71354 5.7145
260 1 -6.38137 -2.27117 6.03683
1465 1 9.03024 -2.83219 5.16406
79 1 8.246 -2.29208 5.72181
1883 1 10.1967 11.4592 18.4255
1606 1 -1.91377 11.2001 18.3827
1411 1 -2.67803 -2.33862 5.68797
1715 1 -1.93046 -1.64782 5.95656
183 1 -0.148569 -2.57992 4.80841
106 1 12.5036 -2.46952 5.59728
561 1 -0.653917 12.0387 6.01368
1088 1 1.41192 13.5465 4.8546
1099 1 14.9244 -14.8946 4.94727
740 1 0.547993 13.3488 19.2754
58 1 15.5335 -0.561031 -7.93888
950 1 2.50606 12.3678 -8.57924
1107 1 16.6974 -0.690291 19.6574
2009 1 -10.4241 13.2248 4.97994
1521 1 4.34973 -0.956007 18.9963
1005 1 5.97864 12.5912 18.2986
1638 1 5.25246 12.4039 19.3055
1776 1 20.1136 13.1324 32.8
1727 1 7.50069 -1.34146 5.3101
318 1 20.346 -1.45415 -7.78885
301 1 9.05915 12.8702 18.3088
1627 1 -4.60231 -13.8481 5.7453
2013 1 7.70376 13.26 -7.9489
659 1 -5.07082 26.3366 5.64646
1359 1 -4.18847 12.1784 19.3443
216 1 10.1699 12.9465 4.96027
1548 1 -2.46492 -14.3973 5.35125
313 1 27.0846 12.9332 4.94333
689 1 -0.390878 13.2443 6.03442
493 1 12.4061 12.3853 5.17364
1461 1 0.480141 0.621826 19.8722
1741 1 0.692244 1.09115 20.8694
120 1 15.2186 0.479413 -6.24315
383 1 15.4658 1.09604 6.49727
295 1 -10.9965 14.8527 7.1867
2007 1 -11.0005 13.8721 20.0019
2020 1 2.63151 13.9034 21.2623
1681 1 -23.0887 15.0417 6.50655
1448 1 17.2544 0.768681 7.05705
1562 1 18.0724 -12.4381 21.2638
1234 1 -7.8109 13.78 6.15634
1200 1 4.56813 0.400327 6.64607
1742 1 5.23937 14.8537 7.03719
1774 1 6.41028 28.763 19.795
20 1 6.26052 0.621643 6.83093
737 1 -6.44092 14.5672 20.3138
1752 1 21.2672 1.50464 7.569
641 1 8.4047 0.650489 6.31652
642 1 9.93107 1.09967 -6.283
1151 1 23.4119 0.638688 -7.41428
392 1 -4.46493 14.0896 7.06745
112 1 -3.28756 13.8896 7.05818
1165 1 10.5833 1.24052 -7.24724
184 1 -2.25014 14.3529 6.58527
186 1 11.1034 -12.3617 -6.22708
538 1 -0.84584 27.8166 -7.08131
732 1 12.257 14.8507 6.96554
962 1 13.0774 14.7381 7.49854
2001 1 0.947466 -12.1197 6.10958
833 1 0.988848 3.00123 -6.46631
1463 1 15.0225 15.6441 7.02137
1008 1 14.4838 16.3339 6.29935
595 1 30.1283 2.1818 20.0876
964 1 1.81259 16.5391 6.6501
2017 1 -10.1161 15.6026 20.8345
1799 1 4.22664 -10.8986 7.53327
180 1 4.32725 -11.0635 -7.4106
1794 1 5.33758 2.0384 6.3319
1942 1 5.05917 15.7603 7.47843
1081 1 19.7505 29.9433 -6.62664
961 1 -6.92253 29.2402 7.03469
1827 1 -5.64688 15.2739 20.4299
1094 1 7.76113 16.4571 6.37726
593 1 8.80241 2.6657 7.10366
1224 1 -3.70997 15.7843 6.08051
1380 1 -3.1192 2.29254 7.0095
1118 1 9.13272 1.58366 6.60403
1427 1 -2.48512 2.14157 6.16087
1248 1 11.9869 15.9086 6.72192
1122 1 12.8442 1.59093 19.9587
942 1 12.7451 2.69166 6.23229