ITEM: TIMESTEP
200000
ITEM: NUMBER OF ATOMS
2048
ITEM: BOX BOUNDS pp pp pp
0.0000000000000000e+00 1.3679807573413575e+01
0.0000000000000000e+00 1.3679807573413575e+01
0.0000000000000000e+00 1.3679807573413575e+01
ITEM: ATOMS id type xu yu zu
1777 1 15.9684 27.658 14.7984
1523 1 -0.357758 0.737798 13.8063
342 1 14.8658 -10.7505 15.2277
482 1 -1.05524 14.8242 0.68166
843 1 57.6505 0.24848 16.2769
1058 1 -9.50597 14.1524 14.5666
1195 1 16.8275 13.146 27.102
688 1 3.27547 0.803967 1.36801
1256 1 -9.09101 1.31418 1.1097
1746 1 5.31177 -0.0768909 13.7193
1785 1 6.12133 16.5558 14.721
1254 1 7.57327 27.6453 14.8574
763 1 18.9832 1.231 0.222446
1758 1 8.55332 28.1688 -1.39245
1138 1 8.01092 0.156396 -11.6161
928 1 -4.20665 0.846518 14.4409
446 1 8.10577 -0.599008 -12.3766
1166 1 11.1298 27.0599 0.231313
152 1 9.98588 15.1107 -0.316375
649 1 11.5504 14.3314 27.8399
1620 1 -2.30203 -1.32977 0.338263
667 1 0.284873 14.4625 1.41586
1588 1 -3.11853 -14.1337 1.91868
324 1 1.4396 -0.429435 -10.5937
474 1 0.0504846 15.7445 13.595
1133 1 -15.3962 -13.8317 13.0218
998 1 -12.4864 16.8103 -0.811342
1550 1 27.662 1.86693 1.23261
1951 1 0.52026 15.0418 13.0943
1006 1 -25.1551 31.5647 28.1132
1486 1 1.55324 1.6117 12.953
1583 1 0.527054 32.9159 27.2254
1987 1 -11.893 1.28719 14.8073
1881 1 16.5204 15.325 14.544
1703 1 -9.3422 2.13775 1.62468
878 1 15.8005 16.8638 13.8888
1731 1 -11.4415 28.4069 13.8998
1392 1 17.6483 14.8625 13.6788
443 1 5.14384 29.6696 -12.8036
8 1 -8.55366 1.01298 12.3986
1057 1 6.168 -11.4969 13.92
1562 1 19.539 -13.0946 26.6592
1226 1 34.546 14.7357 14.2584
1712 1 -5.47657 1.69578 0.0545655
107 1 21.7842 1.32414 1.19921
549 1 -19.0182 -10.8994 0.218783
1606 1 -5.21124 14.2852 14.2218
551 1 -4.58519 -11.6808 0.881306
784 1 11.5155 2.22588 -28.0825
223 1 -3.56856 16.4085 -12.4815
881 1 11.9949 2.00536 0.223856
1329 1 -1.73617 3.56818 -0.0876011
1013 1 25.3963 28.9565 1.15774
741 1 11.7838 16.8803 11.9371
431 1 -0.0863591 -10.8463 0.563151
1640 1 28.5859 -11.5479 14.3128
1628 1 1.17184 3.06951 0.327051
96 1 14.8133 -8.60782 14.4977
947 1 13.6436 4.87934 14.1357
1354 1 15.3247 5.00451 13.3201
911 1 15.8596 -8.43469 28.9352
227 1 -10.9023 18.7617 14.3649
760 1 4.07946 3.8793 12.5197
655 1 3.30386 16.6046 -12.4534
1200 1 5.07483 3.92761 13.5709
235 1 -8.66937 18.6493 -13.3081
74 1 -10.494 17.6645 14.7377
1910 1 33.7617 3.06119 13.081
1261 1 5.43202 16.7107 0.0343998
133 1 -6.73417 17.6264 1.22669
853 1 5.49235 -10.4009 1.83644
1094 1 7.83393 16.9762 0.946316
1299 1 -4.64187 3.80269 14.2598
811 1 22.6986 -24.2809 1.8434
1398 1 9.67944 1.73837 15.588
1922 1 -3.54821 1.75715 14.3697
1915 1 24.6306 3.66784 0.166726
971 1 -3.52304 -9.27677 0.61925
1206 1 -2.74532 2.67859 27.6182
332 1 -16.0193 18.1791 1.46862
587 1 -1.38976 2.62688 15.436
2036 1 -13.4591 18.5148 28.9392
309 1 -14.0934 -7.99447 14.7133
996 1 -0.709117 18.1037 14.9627
520 1 -11.8101 -21.6928 0.244831
1497 1 15.4731 6.16446 1.2963
505 1 30.3793 -8.82605 26.9549
421 1 4.45325 5.12817 1.19369
322 1 4.10258 -9.2626 -0.112969
1022 1 19.9751 -8.20003 0.167796
723 1 6.12685 3.63553 0.485687
1806 1 8.23706 -9.14192 14.1195
1579 1 8.30614 6.52022 1.14119
112 1 -4.3687 18.6098 14.2808
242 1 8.20038 4.14716 -10.4824
288 1 10.891 -9.36336 12.9936
548 1 -30.3704 5.76838 0.784925
79 1 9.81397 5.35488 13.47
1694 1 10.3807 18.0153 1.71187
2028 1 -2.51804 18.2768 16.1834
1611 1 -1.6717 -8.94394 12.8753
356 1 12.0063 17.9866 14.4251
1421 1 0.799645 17.8772 0.47024
1402 1 24.9759 -8.79886 13.8598
820 1 -1.76897 5.69734 13.351
600 1 1.55091 7.68883 0.0890644
475 1 0.51413 7.4981 14.2937
287 1 29.321 6.68076 0.364301
1501 1 14.532 21.1892 16.323
953 1 3.91163 -5.83445 -0.118154
1517 1 18.2599 6.37712 14.5382
1697 1 -11.0115 6.71971 1.14806
1301 1 2.50626 -4.67177 0.997448
207 1 17.7201 -7.04416 13.7447
1810 1 5.71788 6.05913 14.3605
1114 1 -6.73367 -7.52023 0.562894
607 1 32.3303 8.42233 0.371815
522 1 6.50307 20.3213 13.4411
1897 1 5.74444 -22.2659 -12.3439
1071 1 34.7882 -5.37528 13.6748
1707 1 7.19743 8.76583 1.05316
1204 1 20.9234 -6.58571 13.9749
35 1 8.81453 -35.3382 1.75832
1866 1 9.16966 -20.3985 28.5967
1235 1 10.003 6.27645 -0.54953
425 1 11.0242 6.64505 -12.2267
1129 1 12.2063 -7.19637 -13.1573
1425 1 10.1482 20.419 0.590487
1586 1 -14.1209 8.13317 14.6489
2012 1 27.971 -5.83967 13.2929
1306 1 -11.8405 22.4353 27.7309
1705 1 2.77659 23.5328 15.3951
644 1 -12.0202 8.40297 15.1189
1786 1 15.2228 21.0805 14.76
1033 1 -10.9125 22.8714 -13.7912
1042 1 17.2027 -4.62663 15.2873
1202 1 19.7408 7.81555 13.8887
1742 1 7.70119 9.27345 13.4445
1847 1 18.1679 9.48815 14.8933
536 1 7.50574 21.9354 12.5238
18 1 8.74543 22.5288 -0.657881
1931 1 -19.4651 7.7441 14.4732
1049 1 -18.509 -18.8907 14.7898
402 1 23.0962 10.6477 14.9403
1021 1 22.3618 22.5575 2.18752
2033 1 9.87925 22.4031 -0.574609
438 1 26.0345 7.60636 0.559993
1059 1 11.106 8.0756 13.9582
13 1 -3.25645 8.83876 0.302092
1453 1 -14.1063 20.4194 1.0007
1725 1 11.4729 -5.81216 1.25238
1495 1 11.4745 8.95865 -14.013
2037 1 12.7067 19.8094 29.0656
321 1 14.0488 -5.19484 -13.2135
1775 1 14.8904 24.6607 28.7781
850 1 2.36175 -2.4269 27.5436
253 1 -10.2871 9.14462 2.63368
81 1 17.183 -3.99984 0.562234
22 1 -9.93162 -16.9272 15.0671
2047 1 18.9688 22.4222 28.9353
2 1 5.49038 23.4282 1.35163
1967 1 33.7061 10.979 2.00447
834 1 7.62993 -4.35745 15.6433
728 1 7.20453 24.4389 2.36486
1118 1 6.53925 8.90078 2.04185
209 1 8.398 10.0247 -13.8208
2024 1 -4.95047 9.64665 15.0832
328 1 7.52999 -3.23698 13.9311
275 1 10.1842 10.0151 -12.0496
844 1 8.73518 -3.92874 12.3843
1045 1 9.40737 9.34574 0.733878
98 1 -4.27154 -3.12456 0.0131796
792 1 23.9686 -17.3385 14.1428
1103 1 24.8967 -3.81419 0.151777
420 1 -0.333644 23.0859 -12.7923
6 1 -1.71569 -5.10575 14.2888
1623 1 26.1149 8.78689 15.1404
716 1 1.33301 10.9528 0.0375776
1216 1 0.336452 -3.41029 0.459544
660 1 13.8163 -0.772955 0.979171
1680 1 -13.1714 11.2096 14.4823
1668 1 -11.7316 26.0856 13.5948
245 1 2.96292 25.8232 -0.206935
798 1 3.79359 -1.13942 -13.27
1574 1 4.34242 -4.58366 29.5035
1457 1 4.30981 25.2674 13.7508
1612 1 6.6736 -3.88467 15.1551
165 1 -8.38936 10.7479 -11.5781
656 1 18.4152 24.2304 27.8037
1741 1 4.88157 -1.20235 29.1667
1609 1 6.55701 12.1717 15.9452
1203 1 7.29876 -1.94715 1.40228
539 1 6.91516 12.2444 -13.9512
217 1 7.74519 23.7719 1.30306
1597 1 12.4398 -3.45008 1.09825
1340 1 -5.14052 24.7933 28.0832
1278 1 12.2039 24.5787 1.90925
1938 1 -2.67667 11.6292 13.4306
1889 1 12.8081 11.7488 15.6604
769 1 -1.5604 -15.811 0.75539
636 1 -0.879654 9.92034 15.7261
1305 1 -13.4718 -4.44442 -0.294235
496 1 12.3841 9.53549 13.9148
323 1 -0.239142 13.1172 16.6586
1096 1 13.1431 -1.84865 -12.6501
1041 1 -12.6634 -39.6225 1.87113
1441 1 -2.69324 -13.4883 -0.606052
756 1 2.7782 27.0728 -12.0151
1824 1 28.0883 -1.36136 13.8875
306 1 4.63377 -14.205 14.5335
212 1 3.83141 -1.36779 -12.2004
1410 1 5.73646 12.9069 0.977159
412 1 31.0366 -0.332299 -12.5382
1321 1 -10.5929 14.1166 13.8537
1263 1 5.26308 14.6482 15.7568
1772 1 -6.93725 -0.764977 1.25931
1537 1 19.3488 -13.8739 15.5425
1185 1 -6.37551 -0.605168 -0.79458
1355 1 -7.09159 -0.510939 27.3255
941 1 6.51885 0.299794 14.2405
2008 1 7.60286 -0.988469 2.1708
111 1 6.48304 14.0249 -11.9087
232 1 9.14224 13.1868 -11.7437
846 1 22.6723 -1.1303 0.936844
542 1 -17.4457 -0.0841451 1.17956
1950 1 37.6392 -16.4186 29.4956
1656 1 9.53126 -1.47641 16.928
787 1 -0.603704 -14.5046 2.00157
1706 1 -16.2277 11.7714 14.9955
895 1 39.2872 -0.279387 -12.7854
117 1 -0.94585 -0.995342 -27.0315
864 1 14.1426 0.051319 0.334598
231 1 1.24206 29.0561 16.5765
1345 1 2.62562 -12.9103 17.2279
1349 1 -14.2482 15.1536 15.3437
1526 1 -11.526 1.10661 29.3586
428 1 1.94515 26.3881 15.23
1414 1 2.94798 15.84 3.56101
90 1 2.92553 -11.7734 -11.8203
786 1 30.5997 -12.4961 2.77799
1661 1 3.78027 13.0312 15.8022
1470 1 5.03663 -12.946 16.8459
1255 1 -21.4406 1.50513 14.7912
515 1 6.02701 0.921004 16.4977
1383 1 5.24762 13.5128 31.1694
959 1 5.819 27.2201 2.87263
935 1 6.67789 0.361678 3.85181
1823 1 5.51931 29.5334 1.86063
1297 1 5.54465 12.6404 2.45677
1536 1 7.42736 14.8797 -10.147
582 1 -18.2785 0.562062 -10.8368
230 1 21.6683 13.9476 16.9856
1682 1 20.8723 14.1972 29.9492
10 1 8.69252 2.07281 -11.2624
1388 1 -16.0976 1.53765 16.1149
123 1 12.0666 -14.9226 1.64092
1540 1 -3.85994 -1.31266 15.5256
1019 1 11.6167 -0.239055 15.5749
1841 1 24.8703 0.992026 -10.3745
1634 1 0.551482 13.9837 29.7101
1360 1 -1.11849 -12.2163 3.75261
543 1 14.5688 -12.5599 14.2812
1882 1 25.8653 0.755636 15.3112
206 1 2.11592 15.8619 13.6792
855 1 0.146444 3.82903 14.9851
1409 1 -11.9349 2.25344 29.3734
624 1 2.56029 2.72851 -11.252
1156 1 -11.3401 31.07 -10.7129
1654 1 4.13835 0.91668 2.14081
742 1 2.06399 16.2242 -12.5414
706 1 3.67669 16.0663 -11.2428
386 1 -7.70556 -11.2277 16.4397
1735 1 -8.9439 3.06817 2.88396
574 1 4.40099 3.80635 0.689563
264 1 4.52737 17.1897 1.84925
439 1 -5.79864 1.3255 2.22019
44 1 -4.85909 0.76947 1.79632
178 1 21.9693 2.40477 -12.1641
1070 1 8.16826 -10.7581 16.1576
1412 1 8.7799 17.7128 28.8969
1801 1 6.79119 15.0796 1.6981
1051 1 37.385 3.43989 2.19071
1003 1 9.93367 28.4397 16.7447
614 1 9.83206 0.766548 15.6818
1837 1 -2.8102 -13.4249 28.4975
1659 1 10.507 1.89017 3.42398
927 1 -2.14541 2.6863 16.2893
1448 1 10.5951 -11.4426 2.39824
244 1 -16.2034 2.6326 1.556
1952 1 12.3504 1.82424 29.8846
5 1 -0.774872 2.18435 -12.732
991 1 11.0794 17.2518 -11.474
2003 1 28.7536 3.98705 14.9925
1056 1 1.1537 4.77281 15.5545
1262 1 1.58977 3.1775 16.1541
943 1 -10.7607 -9.18547 -11.5353
999 1 -10.173 17.106 2.1737
795 1 4.17336 -9.51652 3.09384
727 1 6.07575 -9.32244 3.58606
2023 1 -6.10513 6.16688 -11.7618
149 1 -9.68678 18.0281 -25.6154
765 1 7.07629 16.4678 29.3856
1687 1 -5.90722 4.52141 42.3479
1351 1 -21.2104 17.8304 15.6318
512 1 22.6739 17.2909 2.6791
923 1 -6.52717 15.8164 28.1328
195 1 -4.21294 4.49719 17.4832
139 1 10.3239 17.6095 -10.3255
1691 1 -4.25735 4.84865 1.76968
859 1 23.836 -8.90209 16.3312
1027 1 -2.11726 4.00183 3.45083
913 1 11.3069 -10.1023 14.7829
1548 1 -14.1466 -23.3869 -10.1566
1971 1 -3.95147 15.9254 -9.54422
1525 1 12.2831 3.34789 16.2235
704 1 13.1308 3.37214 1.7395
445 1 0.629714 3.53893 -11.4179
132 1 13.0661 3.77538 14.0369
1941 1 0.844639 19.4462 1.57267
949 1 2.32456 3.66839 1.67994
1300 1 0.549339 -8.30837 16.2638
1761 1 3.59107 5.94046 1.03896
1558 1 18.2911 5.16931 16.0501
762 1 17.9874 33.1185 -10.1055
796 1 -9.51222 -21.7926 0.23747
1733 1 3.12261 33.4211 0.174219
524 1 -8.2325 -9.65192 1.06161
265 1 -7.33444 -6.81086 1.22616
403 1 5.20624 17.954 16.2198
1177 1 20.1656 -7.41918 15.7546
1449 1 -5.06126 18.7487 3.77865
1764 1 -5.84414 19.2636 -24.3515
1982 1 21.0969 5.04961 2.11632
885 1 8.91252 18.4918 -10.9856
260 1 -4.84572 -7.51601 2.79452
1053 1 23.4414 -7.97017 2.80086
1227 1 -16.6972 5.40828 15.4796
532 1 10.9111 -8.04529 2.80926
1542 1 -1.45725 4.08713 1.83351
1348 1 11.8068 -7.98657 14.79
1209 1 -1.67837 5.4297 2.88172
1029 1 -1.2952 -9.1883 2.8253
914 1 1.98698 -18.7885 -10.6696
270 1 12.5628 -8.4982 0.357677
942 1 15.3283 -8.15013 2.46051
1993 1 -13.7358 19.9654 1.87482
316 1 12.9948 -5.58292 -23.901
1846 1 1.61058 20.4461 15.821
781 1 14.2603 -6.39629 1.73438
1244 1 3.70039 19.1384 2.68825
1484 1 4.33311 5.97898 1.87788
1992 1 19.7472 -6.9438 2.99326
745 1 -7.52211 8.04884 15.1598
405 1 5.78957 19.2013 -10.8163
204 1 -6.05812 7.93171 -10.6654
9 1 20.9291 20.5381 2.50404
434 1 8.4059 6.77671 15.7324
797 1 9.37755 6.99789 -23.7867
1106 1 -3.24421 7.65837 2.56203
832 1 9.33277 19.7368 0.604524
1196 1 -4.21208 20.6562 -11.1273
252 1 9.75749 6.1059 1.64631
2046 1 10.5493 8.17468 15.3686
1664 1 24.2442 20.2691 2.53422
1732 1 -2.38745 34.8209 2.20796
735 1 -15.2733 7.10976 15.4093
1144 1 -2.23297 -5.22318 2.19483
177 1 -1.32649 6.62621 2.60858
278 1 1.46245 -31.6626 2.08148
182 1 16.9989 -20.3182 -25.4304
1669 1 -11.2008 8.88713 2.07552
1788 1 16.0291 21.3805 1.74634
208 1 2.568 -2.9149 3.17591
335 1 15.8035 -2.37793 2.33105
80 1 -9.96341 7.1593 14.7182
1054 1 19.0896 -6.69427 0.786259
670 1 -9.28946 7.22083 -11.7177
980 1 3.4479 8.37282 -12.8784
1607 1 16.2261 6.11444 29.4343
1531 1 -8.27682 6.24149 1.63151
1887 1 19.0575 7.47203 2.80599
394 1 7.73884 8.99471 3.09163
1180 1 20.6052 7.71828 0.906278
963 1 -5.10202 8.56425 30.6873
1974 1 21.9908 7.90457 15.7264
1802 1 7.42036 7.06531 15.0934
374 1 9.41038 7.88573 1.97264
121 1 8.744 23.399 3.19338
924 1 9.79325 -4.73739 15.4998
51 1 -17.2134 20.8204 1.55726
190 1 -2.62403 22.6815 14.7951
1633 1 -3.78798 -19.0932 14.6655
465 1 11.0166 23.0218 2.08213
766 1 -0.346471 6.96845 2.67466
2009 1 -13.3455 9.40206 15.497
1085 1 1.94899 -3.3291 15.7264
1805 1 30.5675 10.6236 -0.0872301
570 1 28.4657 12.0312 1.16003
1878 1 16.4918 -3.18212 28.317
705 1 4.52954 7.96414 14.8986
138 1 5.92881 -3.74951 -11.398
1389 1 -8.35234 10.5081 -10.533
1507 1 7.35215 11.1419 17.1301
1282 1 5.83173 -19.0032 -11.1482
1923 1 -5.92196 10.1609 3.1599
1411 1 -5.39343 -3.35909 15.7998
489 1 -4.37841 10.288 2.27058
377 1 36.7127 11.1919 3.57684
1853 1 11.5063 10.5489 28.4484
1587 1 10.0809 -4.06236 16.5336
794 1 -2.41208 -3.23953 29.4561
1088 1 -2.39539 22.6687 3.27306
703 1 11.8597 -4.11109 1.45101
751 1 0.181904 10.5213 1.46015
1420 1 26.6027 -18.3623 16.6441
1876 1 13.1917 21.1087 1.71377
813 1 -13.0463 -5.36603 15.3537
533 1 0.704076 11.0747 -11.2699
1038 1 0.365925 -15.7381 3.17793
1688 1 13.2672 11.0026 17.1685
1543 1 -12.2831 -1.70247 2.10932
1814 1 3.40348 11.4394 14.3181
88 1 15.0752 12.9764 0.623393
849 1 17.8866 -17.0776 2.35564
1093 1 16.8296 -2.80172 15.8485
580 1 4.37461 11.4141 16.0131
1690 1 3.60059 -2.40653 3.44273
952 1 20.0216 -2.90918 3.07649
272 1 -8.38142 -2.30506 0.559746
1394 1 4.5417 -16.0402 28.709
590 1 5.71656 11.5897 -12.0609
113 1 8.55627 11.2737 1.73607
1618 1 -2.73928 14.1644 29.7543
401 1 23.1882 25.0743 2.55256
2016 1 22.3557 12.2236 29.7013
1594 1 11.4328 -2.21988 2.23172
1327 1 -1.66176 9.41291 2.57449
689 1 11.9677 12.1083 -10.6913
1829 1 0.168753 -1.97533 -11.9603
358 1 -0.691608 -1.62743 16.6801
1366 1 12.2216 11.0405 2.90491
1055 1 1.061 0.223883 -12.5138
833 1 1.44439 -13.5058 -9.78566
485 1 1.73421 0.0341555 15.895
1155 1 3.03786 13.4029 -9.98544
778 1 4.54974 -13.7224 15.467
2027 1 2.55011 -1.37988 -12.8665
1285 1 16.4807 12.1018 1.75914
886 1 4.82428 13.4128 -10.9281
25 1 -6.74673 -14.119 -10.5517
467 1 5.588 -2.19341 -10.9598
1131 1 6.34683 -1.52435 -10.2464
1770 1 7.37493 -0.500262 4.17442
363 1 8.70218 13.1819 2.99346
1855 1 23.7609 11.6667 1.22907
331 1 10.5537 12.7326 -12.7098
1884 1 12.2619 12.7329 17.6931
1116 1 -1.33035 -0.58755 2.69248
595 1 38.6589 13.1631 16.6369
966 1 13.2935 10.8376 -11.3006
877 1 13.9048 1.18769 16.9037
1248 1 14.1754 27.4448 17.1408
1318 1 1.81482 -25.9163 -9.93489
1325 1 13.8041 14.29 4.67974
1939 1 15.4055 0.701633 16.7219
336 1 16.0058 29.742 18.055
1498 1 3.40478 16.1994 4.55766
2007 1 3.35452 14.0958 18.0391
1384 1 4.55169 -11.9105 30.0669
938 1 17.2904 14.9798 17.4977
101 1 6.13498 1.87446 -10.0742
1976 1 20.7822 29.5267 3.69911
1275 1 6.78723 15.269 16.4261
1477 1 19.8623 14.3952 18.7445
995 1 -19.8122 0.420952 17.9465
510 1 9.47785 12.2578 5.53724
529 1 -16.1684 -1.21056 -11.5429
1363 1 -18.4443 0.328664 3.90115
1880 1 -4.33201 0.738324 -8.82195
82 1 -1.28117 -0.0662442 5.17595
1023 1 12.2745 15.1693 -8.78144
1862 1 13.7976 30.0015 15.5804
1567 1 27.3529 1.73755 -11.2147
1124 1 0.580042 15.8338 30.952
1904 1 -0.404051 15.2046 18.9189
457 1 -11.3993 28.9891 2.81228
351 1 15.3554 2.50462 17.0148
1332 1 17.069 3.6075 18.1017
565 1 4.05613 16.1553 3.54897
531 1 5.37759 17.2786 3.82867
921 1 4.76537 2.27375 4.85006
750 1 7.51624 17.4614 2.22912
1854 1 33.1793 -25.6796 -8.73348
1649 1 20.0234 16.6959 31.1923
1228 1 9.582 2.59346 2.60046
697 1 21.7039 -10.5007 3.83545
567 1 7.24641 2.87012 16.6577
1789 1 -3.81629 16.6213 18.781
92 1 10.2397 14.8608 -9.53813
1026 1 -17.2704 0.231011 3.57392
1570 1 -2.37935 15.1259 4.27493
317 1 11.9973 -13.0206 4.04971
1198 1 -2.27465 16.513 4.08591
1736 1 -2.07661 29.3348 16.9743
1423 1 -14.3358 1.81216 6.42325
145 1 1.21154 31.0601 17.1718
1524 1 14.4871 16.2185 -10.9992
329 1 0.051777 16.9124 3.08676
513 1 15.171 -22.9158 2.8015
477 1 27.9341 31.8709 18.0338
1101 1 14.0622 3.53497 17.6763
1822 1 -11.6056 4.51558 17.4256
583 1 3.17902 3.14292 3.12032
1701 1 6.3826 17.1617 2.80913
931 1 16.6218 18.1571 4.79698
1429 1 2.31364 3.57056 4.43197
216 1 7.02113 17.6314 3.6159
695 1 21.5797 17.5393 4.66361
1892 1 6.81527 4.59527 16.4393
20 1 6.30113 3.75682 18.8457
1750 1 48.5845 -8.58096 3.87914
1577 1 -4.90269 2.61629 17.0453
922 1 7.93059 -11.6294 3.10771
1528 1 9.3633 18.4652 5.61854
468 1 -3.61964 17.0544 -23.2065
378 1 9.83572 -9.6563 5.03478
174 1 10.6964 16.5904 16.941
1953 1 -1.79535 4.07983 4.64084
720 1 -0.554865 2.39625 16.6927
94 1 16.384 18.7518 2.9531
1481 1 -1.06348 18.7653 2.0173
845 1 -0.334352 4.82386 -9.3371
621 1 -0.0835285 1.60181 17.9363
912 1 -0.154462 18.0434 -24.9807
1696 1 27.8127 4.40515 3.27954
337 1 2.6553 19.0229 -9.38111
456 1 3.44044 -8.72724 3.76241
248 1 18.844 18.5295 3.34577
11 1 1.32126 -8.44185 3.48793
1296 1 4.17767 4.16822 17.7471
21 1 -8.16372 -8.11411 -9.66797
290 1 6.50394 5.16949 4.40891
1267 1 9.00216 17.1786 -9.69255
1551 1 6.62046 5.78967 3.43111
1942 1 8.2138 19.6462 4.15728
858 1 -6.80136 19.85 6.01099
868 1 -4.70443 6.61464 31.9952
1930 1 -4.88473 4.38218 4.58098
1158 1 23.854 5.02823 4.86283
4 1 -16.8409 18.554 -10.0986
1317 1 9.49817 7.97703 4.02127
1260 1 -2.15597 18.7647 17.3007
56 1 -3.45376 20.9219 -9.56311
1475 1 -15.1637 5.89797 3.95066
791 1 12.41 18.3269 31.3966
1472 1 -1.46816 3.07257 17.1679
1602 1 11.585 6.03718 -11.5633
905 1 -0.12565 6.1189 17.9625
1555 1 13.0468 -6.88437 3.57926
155 1 14.426 6.3897 -11.1561
168 1 14.0371 -8.08203 3.57521
1217 1 -11.0982 7.35721 -10.9046
577 1 16.2835 6.12734 3.19753
1456 1 4.97197 20.2816 16.2343
1511 1 17.2382 33.9272 -10.7418
1242 1 18.4083 4.9489 17.9276
1547 1 17.3803 -20.9635 17.7618
1000 1 5.55711 18.8355 18.704
1885 1 7.24187 -5.65462 1.94051
1629 1 19.922 6.77816 17.9961
777 1 8.00239 -6.74267 -9.05615
362 1 8.08357 -6.93006 3.17109
1650 1 6.73376 6.97535 18.9293
1883 1 8.79623 7.46652 18.7798
250 1 22.5358 8.43791 -8.05808
476 1 -3.35562 6.27015 -10.2077
647 1 -16.1027 -21.2718 17.981
1977 1 11.4878 6.36436 30.6206
1408 1 12.0795 7.46317 16.9867
469 1 -0.495144 18.7324 16.9089
1689 1 27.6445 -5.36352 17.1331
578 1 2.38721 9.74398 2.82147
555 1 12.3799 8.11718 16.2436
978 1 14.2332 20.4016 3.47222
594 1 2.16575 -5.41694 17.8383
1422 1 1.76482 6.90273 16.8338
340 1 2.07011 7.20145 4.39153
1722 1 31.5812 8.39217 3.39504
860 1 17.2901 7.59718 2.89943
617 1 6.5284 7.97922 -10.5164
1098 1 18.0648 7.11535 3.36874
1907 1 19.3901 34.9805 -9.93225
42 1 -20.2089 7.12608 3.53056
166 1 -5.68399 -4.29864 17.6883
43 1 22.2752 -5.33409 4.46584
508 1 9.50241 10.1786 17.6968
1796 1 -19.0027 10.7193 3.81858
1504 1 22.2355 -3.78507 18.3034
326 1 -18.1103 5.93748 3.83407
597 1 9.59801 9.00416 3.90126
77 1 10.529 -3.94406 3.92717
1721 1 23.2233 8.04191 16.5895
823 1 12.0598 8.40319 17.2833
731 1 10.6124 -5.42646 3.75784
1894 1 -13.8381 7.81727 18.5862
1632 1 28.5679 -18.8898 3.92442
873 1 12.1385 23.0922 -9.83337
883 1 14.07 -4.03757 17.5603
1273 1 1.22429 -3.95208 3.07492
721 1 14.6316 22.2571 2.69777
452 1 14.2508 11.1685 4.12627
143 1 2.21518 -18.0397 -9.90934
944 1 3.47467 10.2989 3.01082
1312 1 2.1688 9.30256 18.5059
1636 1 -10.1415 -5.73227 1.82771
1352 1 -8.92767 21.7952 2.33447
413 1 30.3441 8.44545 3.2528
1787 1 4.54555 9.12196 -9.49472
564 1 -8.47342 8.57236 3.44428
314 1 6.93208 8.80824 -23.3084
1965 1 8.48938 24.6145 16.5445
851 1 19.7038 9.08808 -9.31806
1313 1 -7.21621 22.9039 -10.5688
1934 1 -6.40438 -1.56902 -9.99695
1981 1 9.07668 12.1794 18.0283
134 1 -3.23829 24.5237 -9.83114
783 1 -4.36682 -16.1938 -9.11857
523 1 24.0902 10.5556 32.288
52 1 11.5966 10.0764 3.34285
694 1 -3.34971 8.70313 2.78557
747 1 -2.32379 10.2822 4.5064
304 1 -1.38682 10.5581 17.6583
1738 1 -0.140271 -5.29005 15.9665
1234 1 -0.519383 8.78565 17.8971
69 1 1.19611 -2.82356 -10.427
816 1 13.9542 22.9957 2.85046
1065 1 2.07497 12.2511 3.12486
1886 1 16.5654 26.5564 16.2289
910 1 14.5819 12.9469 -11.8253
41 1 2.16041 -15.9944 -12.4988
692 1 2.92173 -1.89267 2.84266
1961 1 4.34369 -3.36002 17.3386
1714 1 32.0404 -2.44016 17.0438
1533 1 18.4347 23.1419 30.3748
1739 1 17.8546 -1.66898 4.23297
1681 1 -33.3072 11.7519 16.2376
933 1 5.28832 -1.35977 3.42927
1871 1 5.66054 -4.07291 17.2419
1821 1 -7.07269 -2.39615 31.6722
2020 1 5.67226 11.3734 17.6505
1979 1 7.54219 -3.14333 18.0831
758 1 8.31699 -1.61229 3.43994
1604 1 7.97955 25.9128 18.232
1858 1 11.2685 11.0594 3.37089
233 1 12.2264 11.5894 -9.64921
492 1 10.3446 52.9405 4.04916
1932 1 21.1051 -17.22 19.9523
171 1 -0.964686 23.7648 16.8627
1289 1 -0.674338 -2.27528 19.3448
715 1 14.0118 10.3138 3.02408
1232 1 13.2324 25.6857 17.9059
1693 1 29.7042 13.6795 18.2494
1972 1 26.9032 -0.544867 17.7931
546 1 2.03414 -2.36529 17.4977
1639 1 30.4786 11.6441 17.9356
68 1 -10.3247 12.9555 4.62627
940 1 1.96857 -0.760389 19.408
718 1 4.02726 13.9964 16.7106
392 1 4.2466 12.5228 2.99359
181 1 6.22447 26.8484 -9.7056
1015 1 -9.26715 14.1608 4.02954
1102 1 5.68267 14.4543 17.6901
934 1 7.60303 -0.607195 5.2277
38 1 6.68861 12.2727 -9.19793
23 1 8.55226 -0.670492 -9.62576
1208 1 21.976 12.1361 19.2807
1492 1 37.2336 -27.3955 16.3677
1036 1 -3.99962 13.0084 4.0983
162 1 -3.31146 11.8595 -11.0259
553 1 10.4879 -14.6206 3.22778
1622 1 -2.4303 11.9867 17.3755
764 1 -1.58132 27.939 16.547
627 1 11.4449 12.5854 4.49107
1670 1 -2.71969 13.4468 17.6249
1506 1 -1.63561 13.4814 33.9668
865 1 -0.134162 10.7512 18.569
500 1 0.596646 12.4696 -10.9977
1778 1 13.0726 27.9917 2.32599
396 1 12.6655 26.0326 -8.68206
806 1 -0.210408 13.3787 -8.56332
575 1 14.3626 1.12021 7.64941
1258 1 -12.0622 14.3077 6.90218
872 1 2.03406 -12.9382 5.73243
1152 1 14.5482 14.7436 17.7512
838 1 -10.9109 -12.2432 -9.29834
2018 1 19.1045 14.1194 19.6024
1331 1 -12.4401 -12.3078 6.32742
743 1 -23.3538 28.5504 4.68967
638 1 31.9509 1.6603 -9.81408
292 1 -8.19418 14.284 7.39448
1859 1 7.12037 16.2838 19.2012
547 1 -9.69038 0.697306 5.81186
1873 1 6.43817 1.74892 19.3728
37 1 -5.33204 14.8662 -9.48503
1534 1 -4.79801 15.2711 3.48694
128 1 22.1849 0.144872 4.90225
1970 1 -32.9089 0.267074 33.1683
1478 1 8.82002 13.1371 32.9575
1819 1 10.8883 14.9498 19.069
280 1 10.5276 14.0581 4.69723
1476 1 -1.36274 14.6122 5.92875
1379 1 11.217 14.3557 6.2321
504 1 40.5256 14.1081 5.90222
1407 1 -0.548238 0.591756 31.2319
297 1 11.6168 -0.596621 7.5055
693 1 1.15663 0.311193 -8.48546
1614 1 14.0044 -0.173036 33.5233
848 1 -12.3668 -10.5708 31.8394
1831 1 29.1274 1.114 18.4851
776 1 2.65635 16.7037 19.0649
1909 1 14.9763 -11.013 5.63867
1171 1 17.4676 2.64817 5.69547
1259 1 3.05478 15.5975 19.1109
1625 1 5.20139 2.36576 3.73276
870 1 -11.6003 -11.8697 5.72502
472 1 5.48636 3.53053 6.33286
1781 1 5.62313 16.8036 -9.00204
1214 1 33.4811 30.1016 -8.12609
1957 1 4.1772 1.69411 5.76217
662 1 6.91244 14.9058 18.1049
1512 1 6.56336 2.30138 4.55326
387 1 -5.3354 2.80115 6.26284
1875 1 21.5797 -11.5717 4.67661
1079 1 8.87143 -11.7101 -8.99139
1444 1 -3.55555 14.4086 19.4064
987 1 9.90232 15.3287 -8.6255
2034 1 10.6103 29.6003 4.68907
2040 1 11.6537 1.6803 6.38687
64 1 28.2009 15.0742 5.40143
752 1 0.259512 2.23224 -7.73219
732 1 13.114 16.2571 19.0665
2017 1 -13.8788 17.8842 18.9989
1713 1 14.9259 2.00864 -22.8052
1616 1 2.47509 4.02908 5.6394
1852 1 0.502449 3.42714 18.8135
1150 1 1.94675 18.2407 -8.81092
1744 1 -9.43314 16.8453 18.2923
663 1 14.7955 3.92391 19.6332
602 1 4.72632 3.57436 7.16943
1308 1 3.61568 3.59365 -8.27047
17 1 -20.2664 -10.2685 21.2345
254 1 19.0987 17.8734 -9.01996
478 1 21.0324 16.4452 6.7711
1458 1 7.08409 16.9884 18.2953
1776 1 20.9078 17.3107 33.0074
1893 1 7.153 4.38778 18.54
867 1 8.46649 3.89096 19.4119
1220 1 7.73312 31.0622 20.3104
902 1 -5.11987 3.96965 -6.53731
1126 1 -4.92311 16.7387 18.5965
840 1 10.4203 17.1722 5.76233
992 1 10.3195 4.88098 19.6189
1962 1 10.9596 3.17646 4.8938
1293 1 12.254 31.2161 5.69258
825 1 -1.39904 2.21048 5.84628
1911 1 40.1432 2.25931 17.9569
1988 1 12.9577 4.50875 20.0541
453 1 -15.3565 16.8084 -8.62332
164 1 -0.00379155 -8.45564 5.44102
1169 1 27.0342 5.90208 -5.63305
1099 1 15.2114 -21.9526 4.51426
99 1 5.25003 -9.30967 -21.6953
981 1 30.8598 18.6813 -8.16078
153 1 6.4622 18.2916 -8.04759
1438 1 18.3461 19.6337 4.90131
1337 1 17.5129 6.01467 5.79229
205 1 -9.01243 3.52628 5.57339
1450 1 5.15032 6.55346 3.9789
170 1 20.0808 5.95536 -8.61703
415 1 34.5937 18.9051 6.41008
770 1 -5.56974 -8.5065 4.8077
566 1 23.4542 -7.91746 -7.63508
1183 1 -18.3584 -8.04944 18.7412
1240 1 7.71079 -9.36578 7.5599
1963 1 10.769 17.9099 31.9027
2035 1 -4.04724 4.16831 6.48327
1427 1 -2.09539 5.1486 4.65684
348 1 0.968076 18.5098 5.30787
372 1 -1.23755 5.90036 -8.49351
267 1 -1.2104 -8.85569 5.34874
1362 1 15.1442 5.26652 6.54853
1405 1 15.7573 33.965 -8.31443
2013 1 13.728 21.1342 -9.79479
700 1 13.0982 3.25714 4.53442
2043 1 14.1747 5.98337 18.7991
771 1 15.2864 -7.5378 17.612
433 1 -13.1463 19.3973 6.1438
746 1 -25.3235 8.72045 5.98898
450 1 -10.9911 6.34132 -9.19957
687 1 15.6471 5.50148 19.1836
1401 1 19.01 -6.47737 19.8338
188 1 5.91456 20.2126 19.4183
1702 1 -19.8927 -5.93243 32.6427
1958 1 -6.59398 19.7234 4.29258
503 1 -6.43806 5.39385 -8.39378
774 1 22.6301 -7.10777 5.71437
1869 1 8.07483 19.7688 19.0306
1320 1 -5.19938 7.51005 6.08604
628 1 10.2275 -7.63741 4.91405
27 1 -2.8719 -7.65765 -7.37585
289 1 24.2402 -5.21128 -22.6205
601 1 11.3011 6.22037 5.3584
1573 1 11.9266 -7.4178 -7.27407
1356 1 11.1761 -6.37792 3.67982
246 1 -1.57173 6.96608 -23.1183
380 1 10.439 -20.1136 5.18193
1581 1 -0.610765 6.82286 5.00912
183 1 12.487 -8.32034 6.86644
350 1 42.075 -6.14574 -9.3945
1522 1 16.005 35.1121 5.2323
257 1 1.33705 9.9861 -8.48153
740 1 0.0466134 9.57721 18.641
1850 1 0.79603 -18.0026 33.4613
1762 1 3.2081 8.73036 -9.32204
397 1 4.4296 7.14693 18.0925
1154 1 3.33071 21.8708 19.0244
1615 1 3.72935 -5.57546 20.2518
1252 1 3.81535 6.96917 6.73592
558 1 5.19568 6.85769 18.7775
144 1 -22.1001 9.12955 5.24076
1465 1 6.66484 -5.89515 18.3303
1813 1 -7.24915 -5.55448 6.211
1552 1 -8.77072 -5.49427 4.63367
1257 1 19.5246 21.9918 5.0974
1095 1 7.87559 6.00842 6.35907
1998 1 8.27066 -3.8568 19.3902
1357 1 -3.034 9.50147 5.10014
734 1 -4.13435 -4.58188 -8.70192
890 1 -2.40385 -5.93983 4.70907
672 1 11.6542 22.5356 32.0386
419 1 9.70971 9.31028 6.02957
1969 1 13.7768 20.4787 19.5673
54 1 12.4386 7.80668 -8.98545
1380 1 -1.04648 -5.65214 7.37251
669 1 -14.6455 -17.3906 7.28658
880 1 -0.423933 9.99832 -7.8041
635 1 29.9785 10.2981 4.10467
690 1 13.5998 9.49533 -6.73937
26 1 17.0069 -3.48258 -8.11567
283 1 30.2386 9.14192 5.64698
406 1 17.8841 -4.86865 -8.43772
361 1 18.0869 10.8476 5.42119
447 1 30.494 -6.1977 3.84726
1302 1 18.3832 10.0056 4.6731
702 1 32.1355 25.3729 -8.57558
1066 1 21.3111 -19.5872 4.15049
1328 1 5.83449 11.2305 6.08265
1246 1 6.87903 9.8774 5.07964
408 1 20.4118 -5.0197 -8.47982
1440 1 8.38231 10.8097 4.81246
1519 1 21.644 8.68346 32.4811
1290 1 -6.01058 -3.00322 7.08311
2004 1 -18.6709 -3.11712 33.9198
222 1 -3.48883 10.3436 5.82347
1546 1 10.1101 -2.26236 18.9972
1230 1 -2.36764 10.7117 19.2579
373 1 11.5153 9.6888 5.67958
1192 1 26.4823 8.75493 18.849
1704 1 14.183 -5.04298 18.4385
1947 1 12.9126 -19.682 5.80042
733 1 14.8085 12.238 -10.1058
1184 1 13.967 -2.94967 -7.7432
1160 1 1.21619 -3.38161 17.7986
382 1 14.2457 -1.21576 18.032
1182 1 31.1892 12.7521 5.6381
1451 1 1.73094 -2.64878 4.78233
1663 1 17.2718 -3.80773 -9.17899
466 1 3.80462 10.9106 4.53508
367 1 18.48 10.9648 4.45967
1341 1 19.8961 12.0414 5.53638
129 1 32.2494 -1.03932 5.1409
470 1 5.40839 -3.40193 5.36383
982 1 5.9542 10.3303 4.38633
1505 1 -6.80075 9.80584 -9.83728
176 1 5.75853 24.8851 18.6428
1759 1 19.9258 23.99 -7.69285
557 1 10.4944 -1.03822 -8.93618
1044 1 -4.196 11.9442 21.2556
1 1 24.8111 -15.8719 -8.80174
1443 1 9.06891 24.8964 19.2959
1808 1 12.303 -16.4882 18.7577
1142 1 -1.37548 -3.12915 6.22575
1146 1 -1.33837 9.9062 18.7096
841 1 -30.0677 -5.492 -8.05827
1446 1 -14.3147 -17.4616 4.24809
1276 1 -1.83345 -15.4608 -8.14616
1489 1 25.4124 -0.767838 5.49638
3 1 2.41856 -1.25952 4.08411
2021 1 -12.6181 12.5618 19.0731
1898 1 2.42321 10.2857 -8.48833
889 1 -12.0718 13.2999 20.3173
1077 1 16.6558 -12.7853 5.21687
696 1 3.03562 -0.170271 5.6753
1072 1 3.01504 -1.12286 6.09507
599 1 16.4936 25.8749 5.1794
73 1 18.5464 28.5233 -8.4858
683 1 18.368 -0.199248 5.72519
946 1 -9.49476 13.2045 4.06795
147 1 47.2411 13.1745 5.05023
561 1 5.62858 12.4751 4.38805
1046 1 4.19746 -1.85053 6.2199
1809 1 5.2206 -13.4912 4.91099
1334 1 7.23188 -1.69714 19.0566
519 1 6.94229 -2.76478 19.121
1494 1 10.652 13.3359 19.1264
737 1 -6.20536 14.6405 32.5703
648 1 21.6813 -2.72579 5.9403
1920 1 24.4718 26.0146 19.3294
449 1 -4.00459 13.5515 5.21505
1364 1 10.2875 -1.39216 -7.02771
1973 1 10.9448 13.3501 20.1705
919 1 -3.73337 -13.9461 6.31408
1430 1 25.3006 0.543949 -8.48952
897 1 -2.03495 12.4862 6.4672
1224 1 -1.08996 12.3245 6.07266
1675 1 14.3089 11.5286 5.19349
1975 1 13.5644 12.294 -8.08063
907 1 15.2489 -1.57566 4.60831
827 1 0.199556 1.21772 20.1863
325 1 14.5564 -11.7269 6.97897
180 1 1.42485 -13.2352 -5.86771
1229 1 16.2389 0.149947 6.6256
1201 1 16.166 15.7197 -6.90932
1571 1 3.7084 0.00375856 20.8834
1833 1 4.74433 14.0164 20.3024
1917 1 6.0965 1.29469 7.9514
1584 1 19.8758 13.3543 6.0526
1727 1 20.2264 0.363746 7.57879
990 1 21.0662 2.58168 -19.2696
1020 1 6.39206 0.838505 6.10812
560 1 7.99288 26.4865 20.1202
588 1 -5.2391 14.9185 5.63255
308 1 8.01831 1.71103 7.65436
211 1 -4.8795 15.7947 -6.63113
424 1 -3.2544 0.729547 -6.90138
28 1 9.48162 1.4454 6.55282
1018 1 11.4875 28.513 8.80508
1025 1 -1.51222 12.045 8.66713
604 1 25.5013 15.7433 22.706
239 1 -2.38936 14.8285 7.29373
875 1 14.3844 -0.247967 21.0393
1237 1 11.8507 27.6714 8.13157
1153 1 27.2375 -10.8118 -6.65761
1010 1 -10.635 -10.6673 6.58241
920 1 3.06688 14.6977 6.32187