ITEM: TIMESTEP
115000
ITEM: NUMBER OF ATOMS
2048
ITEM: BOX BOUNDS pp pp pp
0.0000000000000000e+00 1.3679807573413575e+01
0.0000000000000000e+00 1.3679807573413575e+01
0.0000000000000000e+00 1.3679807573413575e+01
ITEM: ATOMS id type xu yu zu
1409 1 0.479153 14.1693 15.5193
92 1 15.913 15.1633 -14.6907
435 1 1.48873 13.5027 1.30032
1252 1 1.93516 14.6662 14.8058
1366 1 14.6353 14.9212 0.422245
1401 1 16.8042 0.878484 14.4213
922 1 4.19438 2.43098 15.7129
1198 1 5.62035 28.1898 0.544284
436 1 -10.5779 15.2837 1.72652
1892 1 4.02053 0.724607 27.7674
187 1 4.9319 -1.50311 0.0556285
1044 1 5.48762 1.27595 13.27
294 1 -4.407 14.3251 13.8779
1303 1 21.0687 14.1315 -0.339079
455 1 -6.61366 13.9715 1.40909
531 1 7.04806 1.37959 1.67516
1654 1 8.10989 1.59257 1.19498
1634 1 -4.00822 14.6958 12.9036
1451 1 8.94807 0.594087 2.12398
550 1 -3.6097 -14.161 15.517
412 1 23.4453 1.66084 -11.5648
496 1 -0.632258 14.4398 28.739
1848 1 12.525 15.2351 0.74635
1546 1 14.1358 -0.0852887 14.5935
1547 1 12.6423 -13.7009 14.474
1114 1 1.02316 1.29346 1.6827
1554 1 26.7594 -12.8484 13.8056
832 1 12.687 16.8372 0.762091
486 1 0.144294 17.16 2.22845
1886 1 15.2085 14.0512 15.9172
658 1 3.81262 2.46413 3.16708
982 1 3.98231 14.8136 1.35182
913 1 18.7673 2.50786 16.4185
247 1 2.21219 3.79479 14.1431
1879 1 18.8403 2.3984 13.6867
134 1 4.78604 15.1598 -13.0137
81 1 4.90403 2.09828 -1.10538
491 1 -7.42232 17.0077 -13.5389
512 1 20.3704 14.8446 13.3057
1473 1 20.5489 29.8984 1.89408
1615 1 -4.94696 2.49923 14.158
1199 1 7.95945 3.60807 0.898361
705 1 -4.88659 2.24221 2.19673
532 1 22.9656 3.1378 1.2655
1157 1 10.7396 1.96043 1.02155
336 1 11.0836 16.2939 15.8583
1998 1 0.0904069 1.34034 14.631
1298 1 -2.17617 -11.6518 13.9235
1428 1 12.7868 15.5413 1.75978
1245 1 11.2712 3.05396 14.1938
846 1 14.6758 -8.74755 12.8147
419 1 1.53943 4.74602 0.982728
334 1 1.6934 16.6088 0.212072
394 1 1.84126 2.82619 2.16242
1351 1 -11.3127 16.5939 14.837
193 1 -8.75936 5.57919 -12.681
895 1 18.4465 3.87016 0.853994
872 1 4.46733 -10.2314 -0.0834191
327 1 5.14485 4.4432 -0.697309
1545 1 5.87221 16.9089 14.9406
248 1 20.1492 18.4488 0.579728
62 1 10.6791 4.51908 -0.345102
362 1 8.49962 -9.97504 1.85691
534 1 -6.40126 3.55762 -0.169754
1807 1 7.88544 -10.8742 13.8946
1701 1 -4.28671 17.881 1.5948
1910 1 23.9491 4.13836 14.6083
1178 1 10.2271 2.86369 14.2748
1515 1 -1.78594 18.651 0.227395
630 1 12.1461 -9.4338 14.6535
346 1 -2.89444 -10.3933 -12.2334
992 1 13.884 3.18413 28.6258
917 1 13.894 -6.91124 1.60958
398 1 1.99146 19.7511 1.58015
1100 1 2.22065 3.74814 15.6345
1921 1 -9.28882 2.6709 14.4313
1621 1 -12.0662 -7.9094 14.3342
625 1 1.44214 6.17904 13.3816
1574 1 3.74528 5.84233 28.5632
1857 1 4.04775 -9.07468 13.3303
1890 1 5.55465 -7.8286 1.88805
631 1 4.96409 19.9537 0.0451986
2021 1 -7.22158 5.39429 15.2982
1281 1 -8.09206 -9.01923 1.17633
108 1 5.50588 5.43037 13.0125
1474 1 6.93953 31.0302 -1.62896
1689 1 21.2006 4.33548 15.3611
931 1 5.79988 18.3421 2.12932
1793 1 7.57958 4.43481 12.2906
211 1 -6.735 5.01691 -14.1099
2010 1 9.3569 18.6969 0.907459
1491 1 11.3517 5.27358 28.427
350 1 24.1287 -7.9394 1.24854
71 1 -3.47224 17.4256 -0.0165141
1273 1 -1.87513 5.83446 -1.07344
1795 1 -1.90973 7.01468 26.106
1339 1 12.3935 -7.62112 13.3551
1269 1 -2.3499 19.4261 13.4513
1375 1 13.7474 -9.34553 0.54931
984 1 -14.4813 18.5761 0.489362
40 1 -0.292292 19.8019 0.601443
840 1 14.1693 19.1565 14.9675
2014 1 13.5504 20.2075 16.2995
1301 1 12.627 6.78465 1.16131
139 1 15.1041 20.7381 -12.4341
542 1 3.27051 -6.81373 0.897357
1217 1 -11.2507 7.16917 1.70218
844 1 2.28108 -6.9584 13.9624
1800 1 4.2818 -20.5641 14.3668
74 1 -9.01286 7.61327 14.9849
728 1 3.29288 19.8235 0.0838288
919 1 -7.65752 -7.62816 13.8387
1817 1 19.3249 -5.53333 13.4248
1458 1 6.37781 8.17543 15.2062
164 1 5.6275 -6.53813 13.4696
1002 1 7.34405 19.5595 14.5556
885 1 6.87146 7.20038 1.94725
1120 1 20.126 7.28791 14.0231
241 1 6.33522 6.47266 1.24665
48 1 9.27927 5.95586 1.49566
1239 1 35.602 6.51741 14.3399
679 1 7.268 6.3289 2.48863
842 1 7.82064 -8.02555 -0.0999548
1980 1 10.0569 7.538 14.2227
1464 1 -2.91355 6.53045 27.779
95 1 -2.30775 19.9443 1.24706
303 1 -1.2529 7.887 0.611525
1577 1 -1.85587 -6.61272 27.3812
130 1 -2.54097 7.81312 0.791092
1778 1 12.146 21.4957 -0.699238
987 1 0.306942 8.93742 -12.3722
1847 1 13.766 9.57222 16.0749
1979 1 0.635297 7.33959 16.2123
1623 1 14.9003 -5.6416 13.058
1116 1 2.204 8.82113 -0.496454
1036 1 3.34324 8.64332 15.213
1674 1 2.48723 -3.99475 0.138338
1257 1 18.4749 21.3116 13.8593
1352 1 -7.22038 8.73563 2.60349
1370 1 -8.16781 -5.90887 14.4842
1509 1 8.1377 7.56728 2.01837
1431 1 6.52844 7.90628 12.2547
116 1 7.67711 20.8326 1.27772
1213 1 8.14267 8.79665 14.4246
1792 1 8.99407 20.9099 14.349
261 1 -3.83493 6.08152 0.526476
1681 1 -17.5333 9.64534 0.220439
404 1 8.98619 8.97695 13.1623
1941 1 -2.42257 9.59811 -0.197741
956 1 -3.47428 22.1723 0.580195
1926 1 -15.7403 9.3238 14.4625
695 1 13.9092 7.78856 1.58235
1779 1 -13.9848 37.9867 13.6874
845 1 13.2068 8.74724 1.83688
34 1 -1.51867 8.40917 1.57396
1369 1 1.23185 11.3697 1.46831
1968 1 -0.179175 24.0243 15.3219
1861 1 15.5364 10.5875 16.5424
1234 1 1.73885 10.4686 0.81972
1731 1 -10.3749 24.124 13.1973
1349 1 -11.9377 -2.03846 16.0076
304 1 -9.33048 -4.97105 14.8827
1340 1 4.79954 9.72784 27.9589
981 1 30.9305 9.95409 -13.1663
434 1 4.09726 9.03524 13.8983
111 1 6.32006 10.3942 -12.0888
1530 1 5.96018 22.7392 1.69692
583 1 5.8743 -3.70218 0.878995
1200 1 7.45378 -5.38389 1.5138
1111 1 20.2238 -17.8569 13.855
65 1 6.70177 8.38931 14.0877
1446 1 -6.03442 -3.69766 12.4816
1165 1 9.22581 8.3012 -1.37876
644 1 -6.14806 -4.36507 13.4969
1777 1 8.90455 23.8983 12.3992
90 1 8.90549 -3.18912 -0.0587931
57 1 -4.0005 11.1523 -0.0783196
855 1 -1.23617 -3.52713 14.372
1576 1 -2.18983 8.52642 13.881
430 1 0.103362 24.6832 14.585
1093 1 12.0732 -4.61198 13.1907
776 1 -2.03424 10.2052 15.3897
42 1 -13.0083 12.4227 14.7875
859 1 16.1706 -0.331809 14.3508
653 1 -11.2683 10.8505 -0.0805738
9 1 16.8319 12.3999 1.18588
1061 1 4.47648 -1.05272 14.9895
1180 1 17.8719 13.176 13.7445
11 1 3.81138 -1.53586 0.364985
69 1 5.73227 -2.39882 -1.40581
661 1 4.59443 24.7779 0.361997
1080 1 4.31721 -2.11719 15.0225
384 1 -6.76359 9.16337 1.091
1684 1 6.00491 -1.33763 15.3514
1617 1 7.10243 -1.61875 14.873
1185 1 -5.80243 -2.51568 0.899419
1469 1 7.27457 10.2185 0.565078
965 1 -5.85331 10.3799 -0.322025
17 1 -5.18949 -2.24103 -0.20083
1090 1 -3.2752 -1.1366 13.199
188 1 12.7365 11.0362 14.8681
2003 1 12.5557 -1.81805 13.1693
1602 1 11.6006 10.7242 0.563096
451 1 0.443893 -2.12796 0.0446162
1468 1 13.1342 11.6579 14.096
1784 1 14.2504 26.5035 0.18397
1420 1 26.1891 -14.7792 13.9595
799 1 1.86563 -0.465341 -0.380663
1916 1 2.48803 -0.146773 15.597
83 1 4.63445 13.9371 1.09525
1771 1 17.3962 13.1332 -11.8232
2027 1 7.52521 -0.552115 0.197184
1287 1 -7.10191 -0.604637 2.17613
7 1 5.14892 14.4805 1.75731
1927 1 5.35532 13.2717 14.123
988 1 8.17405 13.3745 0.962331
1262 1 -4.90909 -0.750854 13.7814
877 1 6.59284 13.0671 1.17692
1943 1 -3.52435 0.168387 14.057
889 1 -5.59922 12.2472 14.5099
98 1 -2.79779 -0.00893537 1.10293
1629 1 9.10798 1.08815 14.9082
521 1 11.9591 -1.95243 0.614677
221 1 12.1938 13.1015 1.84417
1376 1 -1.99078 -0.527386 0.747698
1237 1 9.24514 26.2887 0.967401
640 1 24.4682 -16.0235 14.437
1645 1 -0.336236 -1.10685 -12.6415
1492 1 25.9551 -15.3819 15.2938
887 1 25.7925 -0.0687431 -14.0415
800 1 -0.0478313 0.283047 2.72082
2046 1 14.4223 13.1182 15.5881
219 1 14.1135 15.9661 1.61494
1511 1 14.2703 28.1287 3.55683
654 1 1.37665 28.4961 -10.6908
1906 1 2.40671 0.642136 2.75608
281 1 2.55622 13.6859 -9.26741
1454 1 17.2031 15.0363 16.4037
1238 1 16.8916 14.2018 1.82314
1788 1 18.1799 15.1723 2.16822
1987 1 -8.25492 14.3139 16.6651
1155 1 4.47709 0.638917 3.52216
713 1 5.93786 27.5364 1.29599
737 1 -8.96235 16.1674 17.4698
1983 1 4.26083 0.572276 2.39813
714 1 -7.39398 14.2916 15.8022
1052 1 21.5901 14.36 0.526351
926 1 19.2657 13.0085 2.66663
1486 1 8.07208 14.1071 16.9216
1698 1 -6.14065 1.41007 16.8376
1769 1 10.0212 30.0028 15.5516
557 1 11.8937 1.85231 -11.2152
1812 1 9.6623 -11.7729 14.7199
87 1 -1.83033 14.0185 14.9734
388 1 -0.797784 15.0563 16.3747
267 1 -2.64853 0.710311 1.94843
1648 1 14.265 -0.297265 17.0191
1835 1 -0.326489 3.32742 3.08799
453 1 -12.5066 16.7749 1.32612
400 1 -0.0791222 16.0754 16.2397
597 1 17.2364 1.64478 3.90029
1725 1 14.8036 -11.5789 2.38509
1258 1 -11.5689 15.2566 2.09952
165 1 1.80556 16.1679 -10.4024
1104 1 18.3814 1.62135 -10.5255
237 1 3.21256 3.10537 -11.8504
580 1 5.61767 15.2794 2.37964
915 1 5.34252 2.23905 1.29407
1361 1 5.84753 -11.0836 3.51657
701 1 20.05 2.08706 17.9751
1646 1 6.01357 -12.2333 -12.2558
1317 1 8.03647 2.65532 15.2256
159 1 7.20875 16.0816 14.6259
502 1 20.1957 15.7176 2.72318
1427 1 -4.37611 3.38464 2.38854
983 1 21.6152 15.2644 2.22953
1026 1 -18.7767 1.35603 3.03694
899 1 -2.73928 15.3589 29.9944
156 1 25.1008 17.2565 2.68915
928 1 -1.82462 3.61446 15.4308
1384 1 11.8266 1.4874 15.1586
1332 1 11.7271 2.60248 15.0548
1526 1 -1.12825 2.65433 16.7284
1015 1 -0.790235 15.9247 3.84458
1913 1 13.5289 15.3048 17.1085
1323 1 0.704994 4.34552 1.63772
871 1 1.22264 17.5555 2.41055
1628 1 -0.793892 -9.6291 16.0701
1860 1 2.95836 17.5362 16.5297
692 1 3.67604 4.28785 2.38041
1293 1 16.9088 18.8544 1.9906
1632 1 17.7329 3.35151 2.69287
482 1 4.81439 17.9942 2.50513
733 1 17.7541 17.5977 -10.1395
1035 1 4.94417 3.4205 3.41174
1341 1 19.4337 3.67698 2.92363
741 1 5.97496 16.5879 15.903
1578 1 18.5546 -9.17075 3.61798
700 1 17.7613 3.68483 1.57449
1605 1 6.51687 4.2751 -12.1662
1536 1 6.6164 16.7528 4.11175
1600 1 7.15855 3.53877 15.8176
97 1 -5.31236 3.46873 3.22023
954 1 7.01629 17.1588 -12.5947
1025 1 -5.84637 17.9586 2.8227
754 1 22.0332 17.7955 -9.52745
920 1 10.3419 4.05256 2.02337
413 1 25.113 3.78173 3.86079
295 1 -2.80199 4.87083 1.84153
339 1 11.8819 18.3707 16.0121
1347 1 -0.933234 5.44213 2.48537
1226 1 14.9342 5.1948 2.33343
1990 1 12.9258 2.89587 1.76168
1683 1 2.29897 4.92853 15.4126
1772 1 0.968754 6.15253 1.96172
1729 1 0.232567 19.3253 30.0838
605 1 3.4626 6.0273 2.83489
1828 1 5.00307 18.4834 0.3077
1692 1 17.6637 18.4329 14.9684
697 1 19.6637 4.63491 3.32681
1305 1 5.0001 3.14434 1.96475
1839 1 7.32944 -9.81939 17.276
1856 1 7.34493 5.23812 16.1778
1736 1 6.68706 18.0741 16.2725
1255 1 -5.43403 5.35056 14.5489
309 1 8.79586 -9.15342 3.18496
1981 1 8.46132 7.14943 16.5487
560 1 9.05749 18.9985 16.173
1896 1 9.8616 -9.43542 16.5714
1027 1 8.84294 5.83119 4.61319
1149 1 -1.31763 5.25442 1.53695
1456 1 12.1589 5.85186 14.3903
1148 1 11.7601 19.0778 3.86973
332 1 -0.635372 5.94895 1.63902
485 1 0.339658 -5.31069 2.51512
1139 1 0.711052 -7.0645 3.25668
1113 1 1.58397 21.2048 17.0336
312 1 4.13606 6.86226 15.4378
1276 1 1.96301 -7.01331 -10.979
1845 1 3.03587 6.33472 15.3963
1272 1 4.91525 7.3796 2.57021
1368 1 32.7697 6.51555 14.6248
27 1 2.6002 -5.9346 -11.044
2023 1 -8.02078 6.60586 2.67927
166 1 -7.25352 -8.05768 16.4621
45 1 5.62925 7.20262 -11.8345
572 1 -8.50127 8.40747 1.9614
770 1 -8.05601 -6.27343 17.3053
900 1 7.51926 -7.47192 17.1931
1960 1 -7.12383 20.306 3.51304
1030 1 8.84986 5.49849 3.59114
229 1 -5.45164 19.0463 -11.7036
1089 1 -5.24229 6.54559 15.4392
378 1 22.7885 3.91073 0.483312
138 1 9.30993 6.65281 -11.2479
1568 1 9.59043 6.3511 17.0665
1414 1 -2.93891 20.567 1.73686
761 1 9.58397 6.89877 1.47425
578 1 9.85981 5.11599 1.9651
652 1 -3.48388 6.20023 -11.3177
287 1 11.4309 5.82498 2.25042
903 1 -1.14434 6.73346 15.9452
258 1 10.7656 5.67501 -10.4514
1758 1 14.6659 23.9365 1.91909
1144 1 0.998698 -5.25411 3.77479
1365 1 14.8592 9.14014 2.07327
149 1 -10.619 8.96821 -13.0983
268 1 17.1364 -6.04518 1.69668
1951 1 17.7732 10.0032 16.4254
55 1 15.7339 9.4155 1.00018
675 1 6.17775 21.2738 -11.0499
280 1 5.14057 9.77668 1.58148
395 1 5.74881 9.60966 3.58705
16 1 7.52716 8.26816 16.2222
1495 1 9.12151 23.1167 -12.221
1891 1 -4.93529 8.1009 1.41782
1331 1 -3.96248 -5.27293 1.79793
1707 1 9.55318 7.99978 13.1462
15 1 10.2337 -4.50356 15.0127
513 1 22.9403 -18.2564 2.49512
449 1 -4.65228 10.1418 16.9805
744 1 11.8853 7.40384 15.2845
1749 1 10.6532 21.6376 1.75064
392 1 -0.755438 7.63854 1.72053
1006 1 -1.16922 23.1491 15.4947
1163 1 -2.39692 8.94654 -11.8159
1986 1 0.0485934 24.6542 16.124
1555 1 13.2556 -4.45032 3.27105
1001 1 -0.06498 10.3826 3.43291
235 1 0.653218 12.301 -10.4856
46 1 2.89746 -5.88595 0.871527
340 1 2.69284 10.5394 1.0343
559 1 17.7685 -4.2762 1.80798
748 1 -10.6169 9.62134 1.50391
825 1 18.91 10.7941 1.28766
808 1 6.31255 10.0087 2.6768
1060 1 -7.3384 10.5389 3.58285
868 1 -6.82736 -2.30568 15.7729
310 1 7.21395 9.31022 2.17804
1597 1 7.45126 -3.33978 1.74121
787 1 -5.31929 -4.90606 2.1044
1525 1 8.73689 10.9643 1.37046
908 1 9.69806 10.4018 0.898973
1733 1 -4.73421 25.3727 0.588866
1128 1 11.0943 -4.74198 16.7478
1561 1 -3.9272 10.3098 13.0506
854 1 -3.09606 -3.44225 2.01933
1320 1 -0.712941 10.2267 2.54979
1284 1 -0.283315 -1.22706 2.4105
272 1 -0.318334 -3.91488 0.786724
1721 1 26.5218 11.4699 16.5949
53 1 29.6669 -2.16374 14.9157
1210 1 15.693 10.3492 1.8006
1713 1 16.4933 -1.21448 -11.5047
510 1 4.82085 11.2619 2.27973
1232 1 5.42905 24.0589 16.4868
1753 1 3.40728 10.9697 0.488054
382 1 17.5061 -2.48204 2.70091
547 1 -8.35842 -1.91306 1.00628
1462 1 4.46436 11.8144 -10.5055
1606 1 4.03893 10.6072 15.2345
104 1 6.11383 -1.39135 14.1677
354 1 -5.72556 10.882 16.1468
1477 1 19.5226 11.2845 15.659
320 1 -4.63297 11.9777 1.89391
1732 1 -6.35994 13.0235 2.96201
1389 1 -18.4922 24.7666 -10.9105
1757 1 8.54594 -4.01117 0.466424
2012 1 23.5251 -2.30237 1.83447
1268 1 10.7613 -3.47511 -12.7195
1814 1 11.0051 11.1335 15.3388
1263 1 12.0993 12.3511 3.24597
1765 1 -0.377193 11.6943 15.383
172 1 11.2977 12.2967 1.23894
1748 1 12.3919 10.4164 3.32707
1768 1 -1.4914 12.1795 18.0913
1247 1 14.3963 12.1022 15.748
1958 1 1.61392 12.7778 14.1481
1265 1 3.80586 25.8501 16.0228
1584 1 15.1816 13.0643 2.6182
684 1 17.0847 27.4104 2.78068
822 1 -9.95126 13.6717 3.91077
930 1 -10.5382 14.4185 17.1523
614 1 5.24412 -0.406703 15.3912
1702 1 -11.5318 -1.27035 17.9294
933 1 5.06347 12.3679 -11.5311
2009 1 -9.34519 13.0405 3.0479
170 1 7.31385 -0.0530632 -9.87841
418 1 7.53347 12.8706 29.123
1482 1 -5.72852 -2.01725 1.84598
1708 1 -6.42796 14.0037 2.48861
1249 1 8.02267 25.7712 2.94897
699 1 9.80813 -0.341276 3.11727
461 1 -3.68495 12.4028 3.64186
1357 1 8.82104 13.1209 1.88663
524 1 -3.20465 -1.00393 0.699343
884 1 15.4716 -1.39478 1.49412
1786 1 27.1538 13.291 15.4299
1977 1 -0.530074 12.4701 30.8464
569 1 13.792 -0.0259117 4.38363
1125 1 1.61723 -0.240008 18.8321
1802 1 14.8593 15.7653 18.3918
911 1 16.2118 0.678709 18.8931
1524 1 16.1307 15.1825 3.35223
146 1 16.3749 14.9282 -9.32447
330 1 18.0537 3.42252 4.50301
207 1 17.9983 -13.9785 4.89186
1117 1 6.48202 1.05745 3.12909
935 1 18.5715 13.4481 3.93707
1496 1 20.1475 0.875805 17.9462
1863 1 21.5587 1.00866 31.475
1392 1 6.07648 -0.23241 17.7613
480 1 23.7855 13.663 4.10248
1608 1 -5.3634 0.212959 18.4931
2016 1 11.5534 16.1231 16.8895
830 1 10.7362 0.948803 3.39839
2029 1 11.8844 13.1906 4.97916
1796 1 -3.60593 12.3116 4.71047
962 1 11.8025 13.3516 2.85716
1805 1 27.5997 2.6933 3.88278
1609 1 -0.885711 -0.448981 16.4995
1169 1 12.9008 14.0812 4.97617
1278 1 0.359628 14.9134 2.5344
1122 1 14.3863 2.88303 16.7458
1383 1 2.85573 2.33034 29.9573
1984 1 14.9722 -10.7083 17.7868
539 1 13.8656 3.94905 -9.82185
1643 1 3.18658 -10.4411 3.68663
483 1 4.61387 0.629578 5.06574
1933 1 5.37218 3.46807 18.7303
607 1 32.8666 1.62958 3.82945
2028 1 6.56362 17.2851 5.02313
746 1 -5.15654 15.4756 4.19991
593 1 7.24928 2.26848 3.65826
112 1 -7.00409 3.05478 2.94945
649 1 9.70516 1.24794 17.0463
315 1 7.67506 16.1861 2.5923
1810 1 9.78979 2.37474 16.6142
488 1 -3.54677 14.3237 1.40502
533 1 10.3219 3.29544 2.72974
1728 1 10.7048 14.6084 18.0932
616 1 10.1127 0.503533 2.48567
890 1 -2.91571 3.0148 3.91155
379 1 0.00150013 14.7828 4.50012
1112 1 -1.74305 1.69166 3.75856
317 1 -0.548348 -13.2203 3.73253
1214 1 28.2207 29.1959 17.3942
861 1 14.0217 4.38554 -10.7827
1118 1 2.18979 3.53329 17.0514
198 1 -11.1119 16.1213 4.00714
1572 1 -12.5068 5.40492 17.1556
12 1 3.68895 17.7945 4.60273
1096 1 16.2016 3.06207 5.61956
579 1 19.4772 3.78946 3.97114
1363 1 -5.77027 -8.58036 3.47084
218 1 6.40003 18.3785 4.53072
1410 1 8.78454 2.47446 3.5676
1360 1 7.59335 -10.5911 4.4031
1640 1 23.4587 1.73193 4.26214
976 1 -4.36883 3.51228 -10.0728
1362 1 9.37952 2.68934 4.98994
805 1 9.37676 4.63652 4.23502
401 1 13.5233 18.492 1.85884
415 1 24.4063 15.6204 3.69608
1507 1 -1.26866 17.3515 17.0406
2 1 -0.163396 18.406 5.04519
721 1 12.9977 16.96 17.7849
1445 1 2.09135 18.2536 16.5384
1350 1 -12.5493 3.70382 17.2
447 1 29.7353 5.60022 2.53598
555 1 17.9769 5.95349 15.8563
798 1 3.46949 4.77844 -10.3191
1063 1 15.3062 4.56763 3.81427
955 1 2.73991 6.48114 -10.1313
1029 1 4.20532 -8.59971 16.4351
234 1 3.48065 5.79368 3.96054
2025 1 4.16507 18.7209 4.42852
2004 1 -6.23162 -9.00733 18.1615
1064 1 5.18075 5.34371 2.89676
476 1 5.55566 6.1815 3.56278
762 1 20.5844 18.9114 -10.0136
1720 1 8.36934 6.62908 3.95356
331 1 8.45451 6.14002 -11.0211
255 1 7.83365 5.65836 4.41596
1517 1 8.10321 3.75186 5.19056
355 1 -3.82693 5.18744 3.43377
1982 1 11.2523 4.61121 16.9554
347 1 11.9078 6.16294 16.849
1662 1 11.217 6.61428 3.93027
1047 1 13.9363 5.92874 17.6292
523 1 12.7383 4.62477 16.9213
1919 1 13.0328 -7.99788 3.41715
1528 1 0.072469 18.7282 17.3472
1422 1 0.139946 7.51455 17.2617
426 1 1.66788 20.1574 3.73268
682 1 3.5129 6.97286 2.53547
1672 1 2.53078 7.42528 3.76472
1664 1 15.5188 22.296 -10.6688
1110 1 16.9094 5.33792 32.1209
61 1 3.44908 7.89581 3.15129
589 1 3.77698 20.443 3.54904
1136 1 4.59924 6.54911 3.00353
711 1 5.39499 8.33576 2.91668
2043 1 20.2683 7.40842 4.14936
51 1 -8.6755 7.0777 -9.30957
1705 1 21.138 20.9699 16.8149
1487 1 -6.00454 6.97072 18.1425
564 1 -7.72671 6.65518 4.53286
357 1 10.2976 7.25705 2.58515
242 1 10.1697 6.99172 -8.74973
520 1 -4.4793 -6.70349 4.34724
181 1 10.0356 21.0698 3.58302
540 1 -5.47263 7.717 3.93459
86 1 39.6318 -7.29163 4.06109
277 1 12.0118 7.56122 4.67147
567 1 1.07178 6.11196 4.56936
1021 1 13.105 21.5292 2.77778
101 1 13.1726 6.65524 -10.1034
1522 1 13.5137 20.3609 4.87548
735 1 1.72001 8.22365 4.43925
750 1 1.49222 9.28902 4.09931
1115 1 0.372006 -4.34315 17.6682
759 1 1.30374 9.56723 16.7054
831 1 16.2128 -4.19295 3.23111
109 1 17.7959 -5.39783 2.19995
1743 1 3.10627 22.4738 2.642
424 1 -9.79652 7.58832 4.30713
1207 1 5.69848 7.76378 18.3009
756 1 4.45655 22.4508 3.09789
706 1 7.19285 8.27038 -10.0861
443 1 9.29292 7.68659 -11.2253
371 1 -6.96965 9.04925 4.46761
1283 1 7.84674 -3.76831 3.86027
380 1 8.68328 -5.16435 4.69326
1842 1 8.4733 8.34754 16.7324
1031 1 -2.23825 -6.8198 -11.1888
1975 1 22.7061 22.6844 3.59706
1850 1 12.444 -5.07622 18.6231
1969 1 11.6812 8.32708 17.2741
30 1 11.3514 -17.438 -24.4906
2024 1 -1.62184 7.30396 16.9983
1017 1 -1.97141 21.7045 2.51131
1873 1 0.908283 7.2729 17.835
1626 1 13.7269 -19.3162 18.2299
179 1 12.9026 22.2916 4.06156
909 1 14.4253 11.2211 -10.3964
585 1 3.26011 10.4462 30.6201
432 1 2.16432 23.1525 2.2613
1690 1 3.32098 11.3609 1.75518
1000 1 1.91871 24.9976 17.4494
973 1 2.11705 -5.11867 15.3151
1452 1 17.8574 8.98263 4.70571
1730 1 4.22388 -3.01242 17.3473
321 1 3.13125 -3.47952 4.88093
1154 1 6.12771 8.58839 17.4889
1315 1 -8.59368 8.50168 3.84074
1583 1 -8.62335 23.0381 16.2404
1023 1 18.3245 21.7294 -8.81763
1074 1 5.29607 8.97357 -8.97489
1867 1 7.02012 11.6155 -10.5722
1727 1 8.06699 -4.23592 3.00164
1450 1 6.86239 9.39264 3.30309
1794 1 8.61475 -3.63822 2.22045
1289 1 -4.9424 -3.96721 4.41564
1656 1 7.91456 -2.98703 4.60331
1307 1 -3.42644 8.43052 2.81527
266 1 -1.39371 -2.69788 15.7449
1687 1 -2.16762 10.4876 31.2159
815 1 -2.68283 7.59799 3.4475
84 1 14.1552 -2.93735 4.52166
1159 1 -0.760658 -17.2571 4.44391
1259 1 -0.0976457 10.1556 5.25842
1261 1 -0.22913 11.7902 4.2499
717 1 14.6571 26.7375 17.9739
1883 1 14.3198 13.3652 19.1755
621 1 2.65312 -2.4626 2.87909
1838 1 2.1775 12.1719 -8.23454
942 1 15.4732 -1.50561 3.34872
866 1 -10.7245 -3.2776 2.21009
1783 1 16.3124 -2.63939 18.3238
307 1 5.46962 -1.99755 16.655
1959 1 -8.33092 24.2181 3.9806
1335 1 6.17958 -2.07179 17.4332
508 1 7.2762 10.167 16.5046
1442 1 8.98087 12.0138 16.9488
1206 1 8.03974 11.8927 17.739
20 1 9.2909 -3.0057 4.20242
690 1 8.90447 -0.628119 -10.3379
698 1 36.9621 24.1041 2.4262
1840 1 -3.15056 -1.5792 1.78647
664 1 10.0617 23.2807 -10.6304
1869 1 11.2568 24.7219 16.4074
740 1 -1.6925 11.3441 17.1815
1022 1 26.3318 -2.40867 4.58246
1167 1 -15.9624 -2.12099 6.07589
1194 1 12.3922 13.288 4.05529
516 1 15.4424 -13.3899 -9.95821
1267 1 0.850684 12.0118 -9.49664
1457 1 2.42581 26.9726 16.7605
1912 1 3.5162 0.325532 19.07
765 1 3.24311 11.9935 16.9158
1978 1 19.0997 0.577853 4.31824
1223 1 5.03356 -1.05221 4.79974
2033 1 6.30987 12.3168 2.84333
1171 1 17.9015 -1.03278 4.13351
2038 1 6.37575 13.6142 16.6757
1591 1 7.06645 -1.17082 3.79706
1763 1 -6.61078 11.7685 4.72992
718 1 5.10841 12.4725 17.3052
1179 1 7.13817 -0.514613 -8.51224
405 1 -6.50825 14.6567 -8.44268
1187 1 22.8395 -1.08987 4.1594
1520 1 -2.24872 12.085 15.9807
308 1 8.12443 11.6517 5.17679
1619 1 -1.9284 0.74972 2.56434
88 1 11.2292 -0.48506 1.89567
407 1 10.2494 11.5447 2.84076
178 1 13.9567 -1.06416 -8.78781
932 1 -0.879418 12.4939 5.14146
739 1 0.981219 28.1232 4.80764
736 1 0.736484 12.8099 -7.27526
1225 1 2.48453 15.531 5.17452
537 1 14.9724 0.559524 5.7981
1387 1 2.24542 -12.9373 6.43212
446 1 17.0937 2.30846 -9.04868
997 1 3.68396 28.6718 5.11603
833 1 5.70636 1.49507 -8.71917
1499 1 32.1203 1.88384 19.4766
494 1 5.20345 16.206 -8.83024
1995 1 -8.21648 14.4846 5.83869
1235 1 21.1532 14.6446 6.38591
758 1 6.14766 12.2923 4.52763
891 1 22.1548 14.6061 19.3518
133 1 -5.82681 13.4395 5.83479
243 1 6.59689 0.371913 -7.80484
123 1 10.3786 -0.466478 6.1432
1922 1 -3.6323 -1.53641 5.99465
797 1 11.9472 1.37886 -7.23924
1866 1 11.8923 -13.1679 17.4875
586 1 13.7459 14.2345 -8.04206
1374 1 -1.24257 0.391222 6.01096
1205 1 -0.346853 15.8654 18.6966
428 1 0.585555 16.5953 4.89408
341 1 0.623619 3.0314 -7.78704
213 1 15.6552 3.79255 -9.30363
1426 1 15.1382 16.0904 19.7675
772 1 2.04306 2.79696 18.4474
1193 1 15.2898 15.0585 17.8334
732 1 15.3068 15.2157 5.75111
2002 1 -9.95704 16.0114 19.3474
525 1 3.70411 3.49262 5.45614
1930 1 3.14149 1.30898 6.91865
372 1 -9.72196 14.4781 -6.34022
1587 1 3.53926 2.99339 6.50658
240 1 18.8186 18.1778 18.3027
238 1 6.39056 1.40393 5.57871
749 1 5.43544 5.367 4.07066
1229 1 6.22655 2.59598 5.24846
869 1 -8.2016 -11.0922 19.6912
276 1 -6.77206 2.11528 -7.64759
1813 1 -4.48889 0.222442 5.53356
1872 1 -7.29823 3.24171 6.00586
5 1 8.05685 -11.7788 -7.52445
1599 1 23.9136 14.0975 18.9451
1395 1 11.7682 14.5725 18.4932
227 1 -2.62371 14.8777 19.334
102 1 -2.24752 15.7539 -9.04926
458 1 -1.05736 15.3697 7.12468
220 1 13.4295 17.133 5.18242
1282 1 13.1748 -12.8479 -6.91906
1859 1 -0.996539 1.43877 18.1625
484 1 0.721364 4.12163 5.85934
19 1 -1.20826 2.92833 5.18294
1534 1 0.601898 17.6874 4.76814
1579 1 14.9434 4.64061 8.08015
292 1 2.64828 4.42329 3.81586
1141 1 15.1683 17.2409 5.36298
881 1 1.84772 5.37284 4.7713
588 1 2.9268 3.33246 4.72361
1099 1 16.3123 -9.39355 4.91076
592 1 -11.2276 3.19477 -7.0214
536 1 4.35294 15.5204 7.04695
974 1 4.26424 17.4142 6.2019
1888 1 5.85081 4.29698 5.52524
645 1 5.30813 -8.22064 -8.07533
848 1 6.93957 6.08341 17.9963
279 1 20.8382 -11.4494 5.06864
1909 1 9.613 -12.5173 5.83687
70 1 -4.34459 0.680373 4.55885
943 1 -4.79455 1.76493 -8.44271
1432 1 12.1594 15.6163 -8.30458
302 1 -3.54425 1.97141 6.34668
452 1 9.79292 16.3486 3.98002
720 1 -2.5181 4.40828 4.81264
862 1 11.9441 -10.763 4.06062
1345 1 -3.32803 -9.36075 17.5808
1066 1 11.1315 -9.4686 7.14097
381 1 14.0555 5.12111 -7.65274
351 1 14.4817 -9.50853 7.15872
1032 1 -12.9761 5.09951 4.69362
37 1 1.52079 4.89535 -7.62021
326 1 -13.2204 5.17887 -6.59957
196 1 -12.4306 5.70555 -8.22329
314 1 15.9039 5.47992 -9.85052
1085 1 2.05923 -7.1776 18.4161
225 1 -22.4448 -9.15957 5.60735
1816 1 17.6701 6.2332 4.81381
1562 1 17.4206 -8.78647 19.2506
693 1 4.08854 -8.96389 -6.62842
670 1 4.34355 5.48396 -7.39286
1819 1 5.86441 4.41872 20.1526
324 1 -6.6603 4.21286 -7.55955
492 1 7.02371 32.378 5.35263
828 1 8.40104 4.26281 7.1655
1942 1 9.4208 16.9566 6.07132
1696 1 21.7144 4.65963 6.08583
1435 1 -0.796415 18.891 4.37609
1585 1 22.4517 4.68582 5.34088
620 1 9.44512 3.85902 18.7612
490 1 -2.36933 19.6693 -22.4054
2015 1 25.2712 17.0973 4.96341
921 1 10.9195 5.01953 5.82472
966 1 -1.47662 18.0773 4.10849
1294 1 -14.5272 5.56156 -8.34242
1564 1 13.9057 5.80401 18.9444
56 1 0.816002 21.1382 5.12809
1285 1 16.4681 -6.34301 5.346
150 1 1.92738 6.49334 -7.69805
1406 1 30.1835 6.18125 5.53763
688 1 3.05387 6.58623 4.48644
1048 1 4.53649 5.81633 17.3138
1219 1 4.48601 7.5559 3.48883
22 1 4.27875 -7.39197 5.71871
1871 1 3.6179 -6.12453 20.1416
160 1 19.7509 5.58906 4.92638
1997 1 -8.96103 7.86137 19.7201
300 1 -5.60971 8.94422 -9.72801
28 1 5.30834 7.00432 5.66624
368 1 7.64733 8.18243 4.67921
1996 1 -4.1815 18.9245 20.0928
306 1 8.55419 -7.87802 5.8545
527 1 11.2808 -6.6707 5.40915
619 1 -3.98522 5.62796 5.07358
1271 1 10.6998 5.34924 18.0431
158 1 13.0333 -6.93987 6.14366
1359 1 -1.30286 6.64558 18.8427
1158 1 28.0823 6.50932 5.83905
1904 1 -0.529424 21.0186 20.8703
154 1 13.0612 7.50174 -8.23751
342 1 13.9577 -5.54163 5.68803
841 1 -12.7968 8.72456 -8.80792
1444 1 1.59246 21.681 19.3193
806 1 2.51176 8.56474 3.7936
1659 1 2.976 7.97963 4.46934
440 1 17.3273 8.09919 5.4458
1704 1 3.57424 -5.00971 17.5982
1703 1 -10.7837 -4.53956 4.50453
1236 1 4.21306 22.5063 5.97787
1527 1 6.12929 8.06435 5.56779
249 1 7.04016 22.4035 5.68109
820 1 6.44634 7.08957 18.9122
1878 1 8.17811 8.17047 19.261
1625 1 -4.25488 6.43059 5.70913
501 1 -4.38128 21.7809 -9.76863
1624 1 10.4971 -4.9551 17.7409
753 1 9.01362 21.3134 5.20473
849 1 12.8638 -6.13553 3.97794
1881 1 12.579 8.76338 16.3547
58 1 10.1922 -5.65362 -8.86072
853 1 12.3174 -4.27371 3.77023
127 1 12.2435 21.7224 -6.54282
907 1 12.2913 9.46227 7.22141
1939 1 -0.163527 -4.51566 18.5143
1423 1 -2.0486 8.89911 5.90015
667 1 13.8236 11.1387 5.95971
1440 1 13.7695 9.17826 5.88727
1419 1 0.729649 10.2836 5.90734
259 1 -11.4085 24.0113 -9.90443
618 1 14.9918 10.5341 3.77655
1865 1 17.2442 9.78892 3.87492
683 1 3.48267 9.47528 5.46842
1302 1 19.7948 9.13194 5.2693
257 1 4.67351 9.64493 3.84173
1040 1 4.21452 -3.47825 4.59633
1560 1 -6.78643 -3.59514 4.31173
1603 1 -7.62555 9.71327 19.8383
1540 1 -6.04729 -4.38114 18.6184
1897 1 9.79877 -4.55437 4.75202
151 1 8.78491 9.23744 -7.77521
420 1 -2.28941 22.9096 -9.58252
1039 1 9.49928 8.42729 19.2681
1297 1 9.37996 -3.73417 5.41628
399 1 -16.1973 9.67027 -8.41488
1801 1 -2.43575 8.46245 4.97125
1875 1 25.8106 -3.459 5.21214
814 1 -0.747622 -3.80319 -21.229
1243 1 -1.14043 12.1036 6.47625
1829 1 -0.0984395 -1.69328 6.8018
1950 1 28.3973 -3.77584 18.573
1140 1 1.44095 -2.36216 4.74842
1666 1 1.33133 26.0941 18.7064
1610 1 2.31295 12.2167 6.54054
893 1 17.1581 -2.44122 3.94257
783 1 2.08517 -16.9953 -8.5265
8 1 -8.71061 11.5858 4.19433
265 1 -8.84066 -2.88727 5.0368
528 1 5.73809 12.2822 5.5413
999 1 7.20879 11.0602 3.92492
467 1 -5.31754 -2.73672 -9.97801
924 1 7.69188 -2.26007 6.09153
385 1 -6.79012 23.4296 5.51913
1825 1 -17.5023 -3.73079 4.05034
905 1 -4.50351 -2.56167 5.08237
63 1 24.3754 -2.98925 4.53653
796 1 -1.73471 -15.1885 5.5958
595 1 24.0881 12.0551 20.8429
1900 1 -0.447857 11.5976 19.0444
363 1 12.2877 -2.53212 5.78454
1944 1 14.4749 11.7137 5.40321
1439 1 25.7551 13.0295 19.7617
1253 1 15.1613 10.9505 5.75009
224 1 1.51023 12.7362 7.25922
912 1 0.367545 13.8846 -7.18209
2026 1 2.75368 -0.709139 18.7562
296 1 3.27169 -1.47684 -8.01456
1356 1 17.4809 -14.2576 5.77193
1542 1 4.08466 0.892456 6.05802
1260 1 3.05814 12.8485 17.6567
76 1 18.1715 15.337 4.5629
1453 1 -10.5473 13.8178 6.5565
977 1 16.7796 12.0228 4.70764
1653 1 4.28791 -1.853 5.25939
941 1 5.32249 -1.60184 6.58162
802 1 5.50741 27.2098 18.9008
472 1 7.03612 10.7616 5.28624
646 1 -7.24097 1.27127 20.3385
106 1 10.9878 0.180504 2.86013
1105 1 9.11564 -1.49594 -8.45427
1627 1 7.04207 -15.246 5.72346
32 1 8.18269 -14.5712 -8.87807
239 1 10.6872 12.7119 2.7207
433 1 -3.50448 11.4508 3.95957
1823 1 9.28471 26.5844 6.01746
1196 1 -2.28079 13.8634 5.59979
1279 1 -2.15162 38.7181 4.94372
206 1 -2.76711 12.7861 5.29971
1550 1 11.2362 -1.4376 3.87086
923 1 11.0926 13.3155 17.4494
790 1 -2.53825 -0.05896 -6.93794
1277 1 14.2007 15.4853 19.0715
599 1 13.0994 12.9306 -7.19381
49 1 -0.896849 1.85851 8.32085
1046 1 2.06171 0.718116 8.40335
1088 1 1.53341 13.7639 6.89859
1712 1 2.17705 13.2369 6.18276
1582 1 2.28553 -12.966 7.40062
2041 1 16.7515 1.31659 19.5782
190 1 3.55888 15.9554 9.06087
836 1 16.849 1.22811 7.95374
1559 1 3.92039 -0.243657 20.8334
1970 1 -22.3974 1.07456 22.4892
873 1 5.19919 14.9612 6.74079
916 1 -5.74625 15.2957 5.02201
425 1 5.08423 0.895729 -5.95963
1348 1 8.82701 -0.987812 6.88885
1168 1 7.77919 0.142886 6.89902
570 1 22.0416 0.989064 6.86127
1831 1 24.0869 0.653801 20.1041
1327 1 -2.05814 1.4841 7.75503
2005 1 10.8342 0.551452 7.59593
1290 1 -2.07252 -0.0263845 7.94925
2020 1 -1.02654 14.3988 21.7398
1573 1 0.618584 1.80199 -7.19332
1045 1 14.1561 3.13 6.95535
519 1 0.0645869 1.25389 7.42927
785 1 14.3094 -10.1574 -4.81782
177 1 1.42575 -10.1806 6.48997
283 1 29.3411 15.4178 6.79477
1764 1 -13.3427 15.9933 -5.87148
514 1 1.57864 2.72893 -6.37389
704 1 16.4782 2.17352 6.21902
1504 1 17.8659 1.8135 8.32001
1836 1 17.4921 3.01869 8.09683
318 1 18.2082 -10.7296 -8.1311
328 1 -8.41517 2.12826 7.78548
1663 1 19.7918 2.21157 -6.59924
406 1 7.49502 0.850495 -6.13379
623 1 23.4448 -0.448551 4.88505
879 1 7.56293 3.44741 7.01352
305 1 8.94166 1.88384 -6.8071
742 1 -5.08136 2.66716 -7.99119
558 1 10.9835 15.7411 7.06765
67 1 -2.05943 18.0801 6.24127
709 1 -2.49864 15.9399 -7.6786
1041 1 -1.94541 -24.6565 7.51245
1535 1 24.4197 16.9135 20.7017
615 1 -1.27462 2.642 6.43665
216 1 12.5636 17.8164 5.13374