LAMMPS (7 Feb 2024 - Update 1)
OMP_NUM_THREADS environment is not set. Defaulting to 1 thread. (src/comm.cpp:98)
  using 1 OpenMP thread(s) per MPI task
Lattice spacing in x,y,z = 1.7099759 1.7099759 1.7099759
Created orthogonal box = (0 0 0) to (13.679808 13.679808 13.679808)
  1 by 1 by 1 MPI processor grid
Created 2048 atoms
  using lattice units in orthogonal box = (0 0 0) to (13.679808 13.679808 13.679808)
  create_atoms CPU = 0.001 seconds
Generated 0 of 0 mixed pair_coeff terms from geometric mixing rule
Neighbor list info ...
  update: every = 1 steps, delay = 0 steps, check = yes
  max neighbors/atom: 2000, page size: 100000
  master list distance cutoff = 2.8
  ghost atom cutoff = 2.8
  binsize = 1.4, bins = 10 10 10
  1 neighbor lists, perpetual/occasional/extra = 1 0 0
  (1) pair lj/cut, perpetual
      attributes: half, newton on
      pair build: half/bin/atomonly/newton
      stencil: half/bin/3d
      bin: standard
Setting up cg style minimization ...
  Unit style    : lj
  Current step  : 0
Per MPI rank memory allocation (min/avg/max) = 4.372 | 4.372 | 4.372 Mbytes
   Step          Temp          E_pair         E_mol          TotEng         Press     
         0   0             -6.3647465      0             -6.3647465     -6.2089666    
         1   0             -6.3647465      0             -6.3647465     -6.2089666    
Loop time of 0.00564399 on 1 procs for 1 steps with 2048 atoms

77.0% CPU use with 1 MPI tasks x 1 OpenMP threads

Minimization stats:
  Stopping criterion = energy tolerance
  Energy initial, next-to-last, final = 
     -6.36474650205093  -6.36474650205093  -6.36474650205093
  Force two-norm initial, final = 9.1774629e-13 9.1518702e-13
  Force max component initial, final = 2.9087843e-14 2.9087843e-14
  Final line search alpha, max atom move = 1 2.9087843e-14
  Iterations, force evaluations = 1 2

MPI task timing breakdown:
Section |  min time  |  avg time  |  max time  |%varavg| %total
---------------------------------------------------------------
Pair    | 0.0054584  | 0.0054584  | 0.0054584  |   0.0 | 96.71
Neigh   | 0          | 0          | 0          |   0.0 |  0.00
Comm    | 5.8977e-05 | 5.8977e-05 | 5.8977e-05 |   0.0 |  1.04
Output  | 0          | 0          | 0          |   0.0 |  0.00
Modify  | 0          | 0          | 0          |   0.0 |  0.00
Other   |            | 0.0001266  |            |       |  2.24

Nlocal:           2048 ave        2048 max        2048 min
Histogram: 1 0 0 0 0 0 0 0 0 0
Nghost:           4035 ave        4035 max        4035 min
Histogram: 1 0 0 0 0 0 0 0 0 0
Neighs:          79872 ave       79872 max       79872 min
Histogram: 1 0 0 0 0 0 0 0 0 0

Total # of neighbors = 79872
Ave neighs/atom = 39
Neighbor list builds = 0
Dangerous builds = 0
Generated 0 of 0 mixed pair_coeff terms from geometric mixing rule
Setting up Verlet run ...
  Unit style    : lj
  Current step  : 0
  Time step     : 0.005
Per MPI rank memory allocation (min/avg/max) = 3.247 | 3.247 | 3.247 Mbytes
   Step          Temp          PotEng         KinEng         TotEng         Press         Density    
         0   1             -6.3647465      1.4992676     -4.8654789     -5.4093572      0.8          
      1000   0.93550616    -5.1748948      1.4025741     -3.7723207      1.3586056      0.8          
      2000   0.97307762    -5.1550939      1.4589037     -3.6961902      1.4617431      0.8          
      3000   0.99305362    -5.1544438      1.4888531     -3.6655907      1.469248       0.8          
      4000   0.99207874    -5.1400139      1.4873915     -3.6526225      1.5375948      0.8          
      5000   1.0078028     -5.1423167      1.510966      -3.6313507      1.4934354      0.8          
      6000   1.0273173     -5.114016       1.5402235     -3.5737925      1.7114284      0.8          
      7000   1.0060477     -5.0763277      1.5083348     -3.5679929      1.8403536      0.8          
      8000   1.0042985     -5.0865633      1.5057122     -3.5808511      1.8173967      0.8          
      9000   1.0223236     -5.1117917      1.5327366     -3.5790551      1.6900704      0.8          
     10000   1.0043905     -5.1032176      1.5058502     -3.5973675      1.7240235      0.8          
     11000   1.0122614     -5.0975222      1.5176506     -3.5798716      1.8129602      0.8          
     12000   1.0166496     -5.1057041      1.5242298     -3.5814743      1.718694       0.8          
     13000   1.0021212     -5.0788919      1.5024479     -3.5764441      1.8289222      0.8          
     14000   1.0053823     -5.1395943      1.5073371     -3.6322573      1.5472546      0.8          
     15000   0.98825387    -5.1337898      1.481657      -3.6521328      1.5611514      0.8          
     16000   1.0073102     -5.1236164      1.5102275     -3.6133889      1.6334573      0.8          
     17000   1.0188529     -5.0999668      1.5275332     -3.5724336      1.7657389      0.8          
     18000   0.99138918    -5.0895804      1.4863577     -3.6032228      1.7725026      0.8          
     19000   1.004389      -5.109588       1.5058479     -3.60374        1.7132228      0.8          
     20000   0.99597191    -5.0982385      1.4932284     -3.6050101      1.7462121      0.8          
     21000   0.98587943    -5.1618868      1.4780971     -3.6837898      1.3765827      0.8          
     22000   0.9961475     -5.1412036      1.4934916     -3.6477119      1.5686218      0.8          
     23000   0.96817625    -5.1149477      1.4515553     -3.6633924      1.6673466      0.8          
     24000   0.98055372    -5.1168749      1.4701124     -3.6467625      1.6731123      0.8          
     25000   0.97264483    -5.1137079      1.4582549     -3.655453       1.6510631      0.8          
     26000   1.0099093     -5.1232718      1.5141243     -3.6091475      1.6149548      0.8          
     27000   1.0054947     -5.0967558      1.5075056     -3.5892502      1.7425093      0.8          
     28000   1.0122464     -5.1000488      1.5176283     -3.5824205      1.7848973      0.8          
     29000   1.022327      -5.1042739      1.5327417     -3.5715322      1.7367546      0.8          
     30000   1.0400815     -5.1406091      1.5593605     -3.5812486      1.6339076      0.8          
     31000   1.0152901     -5.1254915      1.5221916     -3.6032999      1.659027       0.8          
     32000   0.9887222     -5.1181168      1.4823591     -3.6357577      1.6451302      0.8          
     33000   1.0101805     -5.1348659      1.5145309     -3.620335       1.6083         0.8          
     34000   0.98175339    -5.1205602      1.471911      -3.6486492      1.6531042      0.8          
     35000   0.98438978    -5.1087985      1.4758637     -3.6329348      1.7125732      0.8          
     36000   1.0038062     -5.1048309      1.5049742     -3.5998567      1.7291663      0.8          
     37000   0.98780172    -5.0772087      1.4809791     -3.5962296      1.8213462      0.8          
     38000   1.0442017     -5.0749053      1.5655377     -3.5093676      1.8697032      0.8          
     39000   0.99889388    -5.0898547      1.4976092     -3.5922455      1.7713157      0.8          
     40000   0.98137229    -5.1142895      1.4713397     -3.6429498      1.666455       0.8          
     41000   0.972291      -5.1413291      1.4577244     -3.6836048      1.5273778      0.8          
     42000   0.97191006    -5.1205814      1.4571532     -3.6634282      1.604334       0.8          
     43000   0.99186064    -5.1169447      1.4870645     -3.6298802      1.6245696      0.8          
     44000   0.98190572    -5.0940894      1.4721394     -3.62195        1.7610682      0.8          
     45000   1.0096065     -5.0836203      1.5136703     -3.56995        1.7876073      0.8          
     46000   1.0172611     -5.1004882      1.5251466     -3.5753416      1.803029       0.8          
     47000   1.0123093     -5.1095383      1.5177225     -3.5918157      1.7064294      0.8          
     48000   1.0046136     -5.1429166      1.5061847     -3.636732       1.5216627      0.8          
     49000   0.97582369    -5.1239117      1.4630208     -3.6608909      1.6240657      0.8          
     50000   0.98334686    -5.126793       1.4743001     -3.6524929      1.5635868      0.8          
Loop time of 73.1354 on 1 procs for 50000 steps with 2048 atoms

Performance: 295342.683 tau/day, 683.664 timesteps/s, 1.400 Matom-step/s
95.4% CPU use with 1 MPI tasks x 1 OpenMP threads

MPI task timing breakdown:
Section |  min time  |  avg time  |  max time  |%varavg| %total
---------------------------------------------------------------
Pair    | 48.076     | 48.076     | 48.076     |   0.0 | 65.74
Neigh   | 21.46      | 21.46      | 21.46      |   0.0 | 29.34
Comm    | 1.3082     | 1.3082     | 1.3082     |   0.0 |  1.79
Output  | 0.0022716  | 0.0022716  | 0.0022716  |   0.0 |  0.00
Modify  | 1.6892     | 1.6892     | 1.6892     |   0.0 |  2.31
Other   |            | 0.5997     |            |       |  0.82

Nlocal:           2048 ave        2048 max        2048 min
Histogram: 1 0 0 0 0 0 0 0 0 0
Nghost:           3708 ave        3708 max        3708 min
Histogram: 1 0 0 0 0 0 0 0 0 0
Neighs:          73216 ave       73216 max       73216 min
Histogram: 1 0 0 0 0 0 0 0 0 0

Total # of neighbors = 73216
Ave neighs/atom = 35.75
Neighbor list builds = 6646
Dangerous builds = 0
Generated 0 of 0 mixed pair_coeff terms from geometric mixing rule
Setting up Verlet run ...
  Unit style    : lj
  Current step  : 50000
  Time step     : 0.005
Per MPI rank memory allocation (min/avg/max) = 3.622 | 3.622 | 3.622 Mbytes
   Step          Temp          PotEng         KinEng         TotEng         Press       c_msd_all[4] 
     50000   0.98334686    -5.126793       1.4743001     -3.6524929      1.5635868      1.5892684e-35
     51000   0.98344192    -5.1280088      1.4744426     -3.6535662      1.5822177      1.9740947    
     52000   0.96945593    -5.1057583      1.4534738     -3.6522845      1.7005168      4.030049     
     53000   0.97801108    -5.119681       1.4663003     -3.6533807      1.7214612      6.0053631    
     54000   0.98842873    -5.1350296      1.4819192     -3.6531104      1.5391378      7.946279     
     55000   0.98578783    -5.1311628      1.4779597     -3.653203       1.642923       9.7103413    
     56000   0.98040979    -5.1220767      1.4698966     -3.6521801      1.6570454      11.50338     
     57000   0.98615508    -5.1308843      1.4785103     -3.652374       1.6284137      13.24777     
     58000   0.98796512    -5.1340786      1.4812241     -3.6528545      1.600378       14.745922    
     59000   0.95825333    -5.0882783      1.4366781     -3.6516002      1.7588508      16.770861    
     60000   0.98807225    -5.1331143      1.4813847     -3.6517296      1.6176458      18.991671    
     61000   0.98567804    -5.1306419      1.4777951     -3.6528468      1.6024574      21.03998     
     62000   0.98046176    -5.1222308      1.4699745     -3.6522562      1.6483363      23.249285    
     63000   0.99197279    -5.1393575      1.4872326     -3.6521249      1.5573685      25.224734    
     64000   1.0027111     -5.1558893      1.5033322     -3.6525571      1.508699       27.015305    
     65000   0.99268105    -5.1405231      1.4882945     -3.6522286      1.5970665      28.83245     
     66000   0.99304096    -5.1420254      1.4888341     -3.6531913      1.5632154      30.902603    
     67000   0.99503498    -5.1453245      1.4918237     -3.6535009      1.5660089      32.878146    
     68000   0.97761588    -5.1184539      1.4657078     -3.6527461      1.6517769      34.511839    
     69000   0.97309339    -5.1111702      1.4589274     -3.6522428      1.6922389      36.411286    
     70000   0.98819055    -5.1346687      1.4815621     -3.6531066      1.5640926      38.411936    
     71000   0.97595022    -5.1156367      1.4632105     -3.6524261      1.6456839      40.386297    
     72000   0.96906674    -5.1050108      1.4528903     -3.6521205      1.7274412      42.03319     
     73000   0.97395503    -5.1127955      1.4602192     -3.6525763      1.6306015      44.07534     
     74000   0.96523115    -5.1012084      1.4471398     -3.6540686      1.7302095      45.934148    
     75000   0.99160428    -5.1397085      1.4866802     -3.6530283      1.5464231      48.361874    
     76000   0.98402447    -5.1282459      1.475316      -3.6529299      1.6085635      50.664115    
     77000   0.99277321    -5.1411784      1.4884327     -3.6527457      1.5626492      53.054111    
     78000   0.97311101    -5.1117036      1.4589538     -3.6527498      1.703121       54.940162    
     79000   0.9830357     -5.1273899      1.4738336     -3.6535564      1.5853015      56.675939    
     80000   0.98848826    -5.1355792      1.4820084     -3.6535708      1.5841544      58.655146    
     81000   0.97370554    -5.1130745      1.4598452     -3.6532293      1.6865162      60.310056    
     82000   0.99634058    -5.1463446      1.4937811     -3.6525635      1.5790888      62.222332    
     83000   0.98818196    -5.1335777      1.4815492     -3.6520285      1.517174       64.007108    
     84000   0.99507938    -5.1449451      1.4918903     -3.6530548      1.5854498      65.735516    
     85000   0.9618074     -5.0954451      1.4420067     -3.6534384      1.7159848      68.229906    
     86000   0.97764906    -5.1183875      1.4657575     -3.6526299      1.5719522      69.977075    
     87000   0.99151939    -5.1391158      1.4865529     -3.6525629      1.5755729      71.744028    
     88000   0.98778823    -5.1341396      1.4809589     -3.6531807      1.6061986      74.341113    
     89000   0.97915498    -5.12056        1.4680153     -3.6525447      1.6571667      76.309455    
     90000   0.97700349    -5.1180487      1.4647897     -3.6532591      1.6228478      78.273283    
     91000   0.97170808    -5.1098283      1.4568504     -3.6529779      1.6434811      80.69474     
     92000   0.97596417    -5.1155051      1.4632314     -3.6522736      1.6396305      82.552406    
     93000   0.98684963    -5.1319737      1.4795517     -3.652422       1.5800576      84.383227    
     94000   0.98792438    -5.1355547      1.481163      -3.6543917      1.6380629      86.187243    
     95000   0.9761871     -5.1159118      1.4635657     -3.6523461      1.6529239      87.931001    
     96000   0.97957543    -5.1225644      1.4686457     -3.6539187      1.6174213      89.594059    
     97000   0.98316099    -5.1265494      1.4740214     -3.652528       1.5611366      91.117357    
     98000   1.0079869     -5.1644405      1.5112421     -3.6531984      1.4787386      92.287897    
     99000   1.0020274     -5.156769       1.5023071     -3.6544618      1.5041713      94.701834    
    100000   0.98489929    -5.1286415      1.4766276     -3.6520139      1.6153893      96.8959      
    101000   0.9806134     -5.1229967      1.4702019     -3.6527948      1.6297565      98.006325    
    102000   0.97994161    -5.1215526      1.4691947     -3.6523579      1.6023506      100.07006    
    103000   0.99260919    -5.141349       1.4881868     -3.6531623      1.5351939      102.23451    
    104000   0.97169722    -5.1092902      1.4568341     -3.652456       1.6710072      104.67341    
    105000   0.96754822    -5.1023268      1.4506137     -3.6517132      1.7117286      105.9848     
    106000   0.98157469    -5.1238956      1.4716431     -3.6522525      1.6096499      108.12236    
    107000   1.0013542     -5.1537294      1.5012978     -3.6524316      1.5453651      110.75678    
    108000   0.98531018    -5.129989       1.4772436     -3.6527453      1.6246318      113.50331    
    109000   0.99079013    -5.1372239      1.4854595     -3.6517644      1.5083879      115.95516    
    110000   1.0023791     -5.1551334      1.5028345     -3.6522989      1.5404363      118.1125     
    111000   0.98891706    -5.1363609      1.4826513     -3.6537096      1.5537879      120.05954    
    112000   0.97531713    -5.1159466      1.4622613     -3.6536853      1.6204018      121.65668    
    113000   0.98938255    -5.136148       1.4833492     -3.6527988      1.5527807      123.16001    
    114000   1.0003215     -5.1522002      1.4997495     -3.6524506      1.5149944      125.45626    
    115000   0.99748968    -5.1477857      1.4955039     -3.6522817      1.5516713      126.95466    
    116000   0.99783325    -5.1484114      1.496019      -3.6523924      1.5801506      128.92804    
    117000   0.98273962    -5.125817       1.4733897     -3.6524273      1.6420387      130.94764    
    118000   0.99087381    -5.1379925      1.485585      -3.6524075      1.5547417      133.26737    
    119000   0.98403061    -5.1280081      1.4753252     -3.6526829      1.6017191      135.2896     
    120000   0.98067197    -5.1228014      1.4702897     -3.6525117      1.6223802      137.12232    
    121000   0.98418513    -5.1286153      1.4755569     -3.6530584      1.6225893      139.56296    
    122000   0.98379463    -5.128776       1.4749714     -3.6538046      1.6610994      141.39465    
    123000   0.98782234    -5.1343841      1.48101       -3.6533741      1.5329264      142.84143    
    124000   0.99132403    -5.1397454      1.48626       -3.6534854      1.490318       144.56349    
    125000   0.96252687    -5.0960234      1.4430853     -3.6529381      1.7425941      146.42011    
    126000   0.99046447    -5.1375527      1.4849713     -3.6525815      1.5785768      148.37483    
    127000   0.9897965     -5.1355377      1.4839698     -3.6515679      1.5730577      150.11311    
    128000   0.98489362    -5.1293701      1.4766191     -3.652751       1.5875772      152.20477    
    129000   0.97956048    -5.1226181      1.4686233     -3.6539948      1.611958       153.86598    
    130000   0.95776668    -5.089287       1.4359485     -3.6533385      1.7153515      155.87817    
    131000   0.9780928     -5.1202512      1.4664228     -3.6538284      1.6141624      158.14036    
    132000   0.98816882    -5.1349197      1.4815295     -3.6533902      1.5912916      160.1358     
    133000   0.9559461     -5.0865487      1.433219      -3.6533297      1.7633171      162.54968    
    134000   0.9868695     -5.1320332      1.4795814     -3.6524517      1.6165224      165.04951    
    135000   0.98611414    -5.1317971      1.478449      -3.6533481      1.6387409      166.68969    
    136000   1.0053237     -5.1602404      1.5072492     -3.6529913      1.472131       169.19475    
    137000   0.96989868    -5.1063267      1.4541377     -3.652189       1.6545451      171.35477    
    138000   0.98073729    -5.1231869      1.4703876     -3.6527993      1.6150618      173.23488    
    139000   0.99602422    -5.1459504      1.4933068     -3.6526436      1.5379959      175.42519    
    140000   1.0030393     -5.1568659      1.5038243     -3.6530416      1.451106       178.36618    
    141000   0.96634744    -5.1010849      1.4488134     -3.6522715      1.778866       179.99406    
    142000   0.98740103    -5.1333114      1.4803784     -3.652933       1.59235        182.4533     
    143000   0.987233      -5.1326229      1.4801264     -3.6524964      1.5990195      183.78083    
    144000   0.99524061    -5.1458025      1.492132      -3.6536705      1.5461046      185.89076    
    145000   0.98447356    -5.1283491      1.4759893     -3.6523598      1.6052282      186.89673    
    146000   0.99292546    -5.1407162      1.488661      -3.6520553      1.5594106      189.09778    
    147000   0.97980916    -5.1218094      1.4689961     -3.6528133      1.674152       190.93544    
    148000   0.97449387    -5.1136789      1.4610271     -3.6526519      1.6980232      192.42736    
    149000   0.99531584    -5.1458091      1.4922448     -3.6535643      1.532039       194.75545    
    150000   0.99403055    -5.1436354      1.4903178     -3.6533176      1.5781162      196.73942    
    151000   0.97783493    -5.1177564      1.4660362     -3.6517202      1.6471113      198.66593    
    152000   0.98501619    -5.1304175      1.4768028     -3.6536147      1.5540959      200.87312    
    153000   0.98855676    -5.1343685      1.4821111     -3.6522574      1.6035601      202.73707    
    154000   0.97466791    -5.1139548      1.461288      -3.6526668      1.7403407      204.96995    
    155000   0.97104002    -5.1085515      1.4558488     -3.6527027      1.6819033      206.3073     
    156000   0.97909681    -5.1209837      1.4679281     -3.6530556      1.6454327      208.28204    
    157000   0.98556702    -5.1294264      1.4776287     -3.6517978      1.615101       210.09014    
    158000   0.98243238    -5.125584       1.472929      -3.652655       1.6188879      212.22672    
    159000   0.99565882    -5.1455698      1.492759      -3.6528109      1.5763394      213.52798    
    160000   0.97880227    -5.1202808      1.4674865     -3.6527943      1.674935       215.03152    
    161000   0.97684096    -5.1182299      1.464546      -3.6536839      1.6236021      217.25815    
    162000   0.993862      -5.144043       1.4900651     -3.653978       1.5443355      218.8247     
    163000   0.97871958    -5.1206301      1.4673625     -3.6532675      1.6515361      220.81239    
    164000   0.97670878    -5.1164807      1.4643478     -3.6521329      1.6375444      223.1401     
    165000   0.99529531    -5.1450815      1.492214      -3.6528675      1.5373531      224.61121    
    166000   0.98403824    -5.1274359      1.4753366     -3.6520992      1.6215682      226.76615    
    167000   0.99449151    -5.1433461      1.4910089     -3.6523372      1.5667154      227.36089    
    168000   0.97182733    -5.110505       1.4570292     -3.6534758      1.6306812      229.2953     
    169000   0.98648707    -5.1311175      1.4790081     -3.6521094      1.6417071      230.50904    
    170000   0.97044981    -5.1078909      1.4549639     -3.6529269      1.629628       232.68132    
    171000   0.98021399    -5.1230845      1.469603      -3.6534815      1.6592225      234.84794    
    172000   0.98706074    -5.1320381      1.4798682     -3.65217        1.6269928      237.08711    
    173000   0.98770059    -5.132743       1.4808275     -3.6519155      1.5690357      238.93902    
    174000   0.97357593    -5.1126845      1.4596508     -3.6530336      1.6112737      241.69932    
    175000   0.99309334    -5.1423196      1.4889127     -3.653407       1.5605423      243.54454    
    176000   0.96106106    -5.093481       1.4408877     -3.6525933      1.7278204      245.40783    
    177000   1.0088915     -5.1656119      1.5125983     -3.6530136      1.4209264      246.45139    
    178000   0.98246928    -5.1252349      1.4729843     -3.6522505      1.6719717      248.24719    
    179000   0.9851611     -5.130594       1.4770201     -3.6535739      1.5843664      251.19116    
    180000   0.98582213    -5.1308355      1.4780112     -3.6528243      1.5854866      252.0281     
    181000   0.97760879    -5.119432       1.4656972     -3.6537349      1.6531457      253.80179    
    182000   0.98171751    -5.1243383      1.4718572     -3.6524811      1.6535377      256.36615    
    183000   0.98511063    -5.1301182      1.4769444     -3.6531738      1.6036214      258.83812    
    184000   0.97908221    -5.1207077      1.4679062     -3.6528015      1.6391055      260.57149    
    185000   0.99942671    -5.150812       1.4984081     -3.652404       1.5236422      261.61948    
    186000   0.9731713     -5.1116815      1.4590442     -3.6526373      1.6737424      263.30481    
    187000   0.9592896     -5.0911709      1.4382318     -3.6529391      1.7905512      266.43412    
    188000   0.98973134    -5.1369345      1.4838721     -3.6530624      1.598704       267.65164    
    189000   0.99847653    -5.1491719      1.4969835     -3.6521884      1.5308305      270.21686    
    190000   0.99635288    -5.1473216      1.4937996     -3.653522       1.4957223      271.58823    
    191000   0.97209423    -5.110251       1.4574294     -3.6528217      1.6902034      273.95725    
    192000   0.98004441    -5.1228221      1.4693488     -3.6534733      1.6400835      275.26345    
    193000   0.96624786    -5.1022537      1.4486641     -3.6535896      1.683012       278.50213    
    194000   0.99297797    -5.1413993      1.4887397     -3.6526597      1.5286334      280.77918    
    195000   0.989312      -5.1365775      1.4832434     -3.6533341      1.6157803      283.08951    
    196000   1.0029086     -5.1561961      1.5036284     -3.6525677      1.5158492      283.84744    
    197000   0.95961884    -5.091776       1.4387254     -3.6530506      1.7085858      286.89248    
    198000   0.9975668     -5.1477786      1.4956196     -3.652159       1.5573052      288.20625    
    199000   0.98227891    -5.1248755      1.4726989     -3.6521766      1.6401777      288.99231    
    200000   0.97706967    -5.1181638      1.4648889     -3.6532749      1.6208768      290.54466    
    201000   0.97262839    -5.1099473      1.4582302     -3.6517171      1.7023123      292.95878    
    202000   0.97392444    -5.1117714      1.4601733     -3.6515981      1.6740872      294.5689     
    203000   0.98823794    -5.1335535      1.4816331     -3.6519204      1.6477856      296.24816    
    204000   0.99250516    -5.1402075      1.4880308     -3.6521767      1.570851       297.94395    
    205000   0.99563608    -5.1460222      1.4927249     -3.6532973      1.5504658      299.8444     
    206000   0.99294465    -5.1413775      1.4886897     -3.6526878      1.5613307      302.3368     
    207000   0.97391529    -5.1126912      1.4601596     -3.6525316      1.7332563      303.90528    
    208000   0.99545456    -5.1447044      1.4924527     -3.6522517      1.5603718      305.09973    
    209000   0.98095169    -5.1237159      1.4707091     -3.6530069      1.6605822      306.46884    
    210000   0.98026559    -5.122391       1.4696804     -3.6527106      1.5915315      308.04628    
    211000   0.97354434    -5.1123978      1.4596035     -3.6527943      1.6246266      309.46787    
    212000   0.96686904    -5.1024751      1.4495954     -3.6528796      1.6498853      311.52159    
    213000   0.98521808    -5.1302816      1.4771055     -3.653176       1.5508943      314.24265    
    214000   0.99042124    -5.1378593      1.4849064     -3.6529529      1.5793011      314.8472     
    215000   0.99335177    -5.1421197      1.4893001     -3.6528196      1.5460154      315.75712    
    216000   0.99402739    -5.1432991      1.490313      -3.652986       1.544818       317.73204    
    217000   0.98831335    -5.1341216      1.4817462     -3.6523755      1.5464579      317.88372    
    218000   0.99030295    -5.137957       1.4847291     -3.6532279      1.5566391      320.18951    
    219000   0.97942859    -5.1207664      1.4684255     -3.6523409      1.6585372      322.47099    
    220000   0.98225332    -5.1256869      1.4726606     -3.6530264      1.6351643      324.79252    
    221000   0.99460266    -5.14339        1.4911755     -3.6522145      1.5802804      327.54647    
    222000   0.98579619    -5.1302237      1.4779723     -3.6522514      1.5828135      328.92649    
    223000   0.97729657    -5.1170702      1.4652291     -3.6518411      1.6406115      331.26449    
    224000   1.0007813     -5.1529077      1.5004389     -3.6524687      1.5683359      334.0103     
    225000   0.97960171    -5.1208895      1.4686851     -3.6522044      1.6271143      335.89273    
    226000   0.973402      -5.1113237      1.4593901     -3.6519337      1.6470923      337.84334    
    227000   0.97962168    -5.1211866      1.468715      -3.6524716      1.6190452      339.6849     
    228000   0.98508217    -5.1294363      1.4769018     -3.6525346      1.6523351      341.3622     
    229000   0.98501461    -5.129634       1.4768005     -3.6528335      1.5651759      343.76049    
    230000   0.99266376    -5.1403415      1.4882686     -3.652073       1.5451432      345.62409    
    231000   0.97334976    -5.1110156      1.4593117     -3.6517039      1.7043539      349.30736    
    232000   0.96063487    -5.0928091      1.4402487     -3.6525604      1.7879006      350.77247    
    233000   0.98585538    -5.1311876      1.478061      -3.6531266      1.5976958      353.55522    
    234000   0.98108513    -5.1231165      1.4709091     -3.6522074      1.6307759      356.41032    
    235000   0.97970064    -5.1216947      1.4688334     -3.6528613      1.605631       358.30539    
    236000   0.97437124    -5.1134728      1.4608432     -3.6526296      1.6627786      360.24811    
    237000   0.99051531    -5.138456       1.4850475     -3.6534085      1.5565781      361.13688    
    238000   0.9756847     -5.1154794      1.4628124     -3.652667       1.6426773      363.65358    
    239000   0.99209402    -5.1394043      1.4874144     -3.6519899      1.5400362      365.53887    
    240000   0.98429944    -5.1279834      1.4757282     -3.6522552      1.605394       366.92004    
    241000   0.98082371    -5.1233835      1.4705172     -3.6528663      1.6351195      368.64522    
    242000   0.97843331    -5.1200537      1.4669333     -3.6531204      1.6301835      370.61396    
    243000   0.96512609    -5.0996811      1.4469823     -3.6526988      1.7011472      371.40825    
    244000   0.99165746    -5.1384885      1.4867599     -3.6517287      1.5957459      374.51699    
    245000   0.97437023    -5.1150271      1.4608417     -3.6541854      1.5952362      374.89352    
    246000   0.98934253    -5.1355409      1.4832892     -3.6522518      1.5692815      376.65891    
    247000   0.96573759    -5.1003494      1.4478991     -3.6524504      1.712447       377.15228    
    248000   0.98360308    -5.1266645      1.4746842     -3.6519803      1.5687377      377.79941    
    249000   0.98753645    -5.1329929      1.4805814     -3.6524115      1.620062       379.29416    
    250000   0.98969312    -5.136367       1.4838148     -3.6525522      1.5742172      381.0149     
Loop time of 288.278 on 1 procs for 200000 steps with 2048 atoms

Performance: 299710.453 tau/day, 693.774 timesteps/s, 1.421 Matom-step/s
95.3% CPU use with 1 MPI tasks x 1 OpenMP threads

MPI task timing breakdown:
Section |  min time  |  avg time  |  max time  |%varavg| %total
---------------------------------------------------------------
Pair    | 191.84     | 191.84     | 191.84     |   0.0 | 66.55
Neigh   | 85.231     | 85.231     | 85.231     |   0.0 | 29.57
Comm    | 5.2024     | 5.2024     | 5.2024     |   0.0 |  1.80
Output  | 0.11073    | 0.11073    | 0.11073    |   0.0 |  0.04
Modify  | 3.4659     | 3.4659     | 3.4659     |   0.0 |  1.20
Other   |            | 2.425      |            |       |  0.84

Nlocal:           2048 ave        2048 max        2048 min
Histogram: 1 0 0 0 0 0 0 0 0 0
Nghost:           3643 ave        3643 max        3643 min
Histogram: 1 0 0 0 0 0 0 0 0 0
Neighs:          73262 ave       73262 max       73262 min
Histogram: 1 0 0 0 0 0 0 0 0 0

Total # of neighbors = 73262
Ave neighs/atom = 35.772461
Neighbor list builds = 26431
Dangerous builds = 0
DONE T=1.0 rho0.8
Total wall time: 0:06:01
