LAMMPS (7 Feb 2024 - Update 1)
OMP_NUM_THREADS environment is not set. Defaulting to 1 thread. (src/comm.cpp:98)
  using 1 OpenMP thread(s) per MPI task
Lattice spacing in x,y,z = 3.615 3.615 3.615
Created orthogonal box = (0 0 0) to (21.69 21.69 21.69)
  1 by 1 by 1 MPI processor grid
Created 864 atoms
  using lattice units in orthogonal box = (0 0 0) to (21.69 21.69 21.69)
  create_atoms CPU = 0.001 seconds
Reading eam potential file Cu_u3.eam with DATE: 2007-06-11
Neighbor list info ...
  update: every = 1 steps, delay = 0 steps, check = yes
  max neighbors/atom: 2000, page size: 100000
  master list distance cutoff = 6.95
  ghost atom cutoff = 6.95
  binsize = 3.475, bins = 7 7 7
  1 neighbor lists, perpetual/occasional/extra = 1 0 0
  (1) pair eam, perpetual
      attributes: half, newton on
      pair build: half/bin/atomonly/newton
      stencil: half/bin/3d
      bin: standard
Setting up cg style minimization ...
  Unit style    : metal
  Current step  : 0
Per MPI rank memory allocation (min/avg/max) = 4.547 | 4.547 | 4.547 Mbytes
   Step          Temp          E_pair         E_mol          TotEng         Press     
         0   0             -3058.56        0             -3058.56       -0.027860375  
         1   0             -3058.56        0             -3058.56       -0.027860375  
Loop time of 0.00373913 on 1 procs for 1 steps with 864 atoms

96.8% CPU use with 1 MPI tasks x 1 OpenMP threads

Minimization stats:
  Stopping criterion = energy tolerance
  Energy initial, next-to-last, final = 
     -3058.56000196872  -3058.56000196872  -3058.56000196872
  Force two-norm initial, final = 2.9749932e-13 2.9467073e-13
  Force max component initial, final = 1.4786783e-14 1.4759027e-14
  Final line search alpha, max atom move = 1 1.4759027e-14
  Iterations, force evaluations = 1 2

MPI task timing breakdown:
Section |  min time  |  avg time  |  max time  |%varavg| %total
---------------------------------------------------------------
Pair    | 0.0036611  | 0.0036611  | 0.0036611  |   0.0 | 97.91
Neigh   | 0          | 0          | 0          |   0.0 |  0.00
Comm    | 2.85e-05   | 2.85e-05   | 2.85e-05   |   0.0 |  0.76
Output  | 0          | 0          | 0          |   0.0 |  0.00
Modify  | 0          | 0          | 0          |   0.0 |  0.00
Other   |            | 4.949e-05  |            |       |  1.32

Nlocal:            864 ave         864 max         864 min
Histogram: 1 0 0 0 0 0 0 0 0 0
Nghost:           2565 ave        2565 max        2565 min
Histogram: 1 0 0 0 0 0 0 0 0 0
Neighs:          57888 ave       57888 max       57888 min
Histogram: 1 0 0 0 0 0 0 0 0 0

Total # of neighbors = 57888
Ave neighs/atom = 67
Neighbor list builds = 0
Dangerous builds = 0
Setting up Verlet run ...
  Unit style    : metal
  Current step  : 0
  Time step     : 0.001
Per MPI rank memory allocation (min/avg/max) = 3.422 | 3.422 | 3.422 Mbytes
   Step          Temp          PotEng         KinEng         Press          Volume           Lx          Density    
         0   200           -3058.56        22.310301      2335.2893      10204.193      21.69          8.9351058    
       500   192.61232     -3038.9381      21.486194     -192.76658      10293.963      21.75342       8.8571856    
      1000   207.64037     -3038.0728      23.162596     -2393.3047      10314.544      21.767907      8.8395124    
      1500   191.25312     -3033.6972      21.334573      3618.4579      10283.111      21.745772      8.8665333    
      2000   211.4412      -3035.7322      23.586585     -2616.3196      10324.769      21.775098      8.8307584    
      2500   201.41579     -3036.2306      22.468234      580.91328      10298.379      21.75653       8.8533875    
      3000   194.89603     -3036.1807      21.740946      1402.3896      10291.379      21.751599      8.8594097    
      3500   203.06001     -3036.0344      22.65165      -2356.9543      10320.942      21.772407      8.8340327    
      4000   199.30253     -3035.1669      22.232498      1833.0992      10292.673      21.75251       8.8582962    
      4500   209.85856     -3035.6116      23.410038      1928.1229      10291.334      21.751567      8.8594487    
      5000   194.84297     -3035.2693      21.735027     -941.20191      10312.67       21.766589      8.841119     
      5500   192.47974     -3035.95        21.471404      539.32359      10298.354      21.756512      8.8534095    
      6000   197.81712     -3036.2122      22.066798      204.48908      10300.466      21.757999      8.8515939    
      6500   203.29328     -3035.6277      22.677672     -421.1026       10308.06       21.763345      8.8450729    
      7000   200.3837      -3036.3671      22.353103     -547.93154      10305.922      21.76184       8.8469077    
      7500   196.92782     -3035.0141      21.967595      1137.9699      10297.448      21.755874      8.8541885    
      8000   201.28356     -3034.7177      22.453484     -710.88586      10313.445      21.767134      8.8404546    
      8500   200.5541      -3035.6218      22.372112     -826.52038      10310.927      21.765363      8.8426134    
      9000   203.8133      -3036.9112      22.73568       79.39524       10299.639      21.757417      8.8523044    
      9500   197.0228      -3035.448       21.97819       1459.3397      10293.26       21.752924      8.8577908    
     10000   199.95123     -3035.549       22.304861     -1697.6789      10317.47       21.769965      8.837006     
     10500   202.64526     -3036.367       22.605383      487.43855      10298.074      21.756315      8.8536502    
     11000   201.47722     -3035.7072      22.475087      1768.6915      10290.867      21.751239      8.8598502    
     11500   206.31391     -3035.164       23.014627     -3370.3392      10332.191      21.780314      8.8244155    
     12000   206.27499     -3034.9243      23.010286      466.22179      10303.608      21.760211      8.8488951    
     12500   198.94729     -3035.7874      22.192869      2515.3808      10284.205      21.746544      8.8655899    
     13000   191.25518     -3034.1945      21.334803     -2209.2779      10325.808      21.775828      8.8298699    
     13500   194.28175     -3036.3255      21.672422     -729.02427      10306.668      21.762365      8.8462676    
     14000   197.09602     -3035.9083      21.986358      2948.6671      10280.816      21.744155      8.8685123    
     14500   193.31078     -3035.0079      21.564108     -881.07006      10312.73       21.766631      8.8410673    
     15000   204.5553      -3035.7577      22.818452     -535.90435      10308.728      21.763815      8.8444995    
     15500   195.00258     -3036.6774      21.752831      839.39102      10293.783      21.753293      8.8573403    
     16000   197.3956      -3036.6003      22.019777     -215.75269      10302.598      21.7595        8.8497623    
     16500   199.84578     -3035.7189      22.293098     -1462.1163      10315.373      21.76849       8.8388026    
     17000   195.62121     -3036.4329      21.821841      323.60105      10299.186      21.757098      8.8526943    
     17500   197.488       -3035.4564      22.030084      203.31939      10303.06       21.759825      8.8493657    
     18000   196.42413     -3034.6832      21.911407     -2361.8494      10325.023      21.775276      8.8305416    
     18500   207.14158     -3035.7845      23.106955      1178.5137      10295.221      21.754306      8.8561031    
     19000   198.67884     -3036.5102      22.162924      1643.3079      10289.107      21.749999      8.8613656    
     19500   194.63124     -3036.0316      21.711407     -2827.4874      10324.196      21.774695      8.8312489    
     20000   199.94439     -3036.1093      22.304097      323.79465      10300.288      21.757874      8.8517467    
Loop time of 26.4853 on 1 procs for 20000 steps with 864 atoms

Performance: 65.244 ns/day, 0.368 hours/ns, 755.136 timesteps/s, 652.437 katom-step/s
96.6% CPU use with 1 MPI tasks x 1 OpenMP threads

MPI task timing breakdown:
Section |  min time  |  avg time  |  max time  |%varavg| %total
---------------------------------------------------------------
Pair    | 25.392     | 25.392     | 25.392     |   0.0 | 95.87
Neigh   | 0          | 0          | 0          |   0.0 |  0.00
Comm    | 0.23163    | 0.23163    | 0.23163    |   0.0 |  0.87
Output  | 0.0013645  | 0.0013645  | 0.0013645  |   0.0 |  0.01
Modify  | 0.7606     | 0.7606     | 0.7606     |   0.0 |  2.87
Other   |            | 0.1002     |            |       |  0.38

Nlocal:            864 ave         864 max         864 min
Histogram: 1 0 0 0 0 0 0 0 0 0
Nghost:           2565 ave        2565 max        2565 min
Histogram: 1 0 0 0 0 0 0 0 0 0
Neighs:          57888 ave       57888 max       57888 min
Histogram: 1 0 0 0 0 0 0 0 0 0

Total # of neighbors = 57888
Ave neighs/atom = 67
Neighbor list builds = 0
Dangerous builds = 0
Setting up Verlet run ...
  Unit style    : metal
  Current step  : 0
  Time step     : 0.001
Per MPI rank memory allocation (min/avg/max) = 3.422 | 3.422 | 3.422 Mbytes
   Step          Temp          PotEng         KinEng         Press          Volume           Lx          Density    
         0   199.94439     -3036.1093      22.304097      323.79465      10300.288      21.757874      8.8517467    
       500   203.22313     -3035.5427      22.669846      4416.1757      10271.441      21.737543      8.8766069    
      1000   211.49828     -3037.0411      23.592952     -3169.5847      10324.637      21.775005      8.8308712    
      1500   192.99989     -3036.3556      21.529429      215.26532      10299.992      21.757665      8.8520016    
      2000   205.3179      -3036.6117      22.903521      546.62981      10297.109      21.755636      8.8544793    
      2500   200.41938     -3035.7575      22.357083     -849.66849      10310.736      21.765228      8.8427776    
      3000   201.32031     -3036.4248      22.457583     -551.24313      10305.907      21.76183       8.8469206    
      3500   195.94988     -3035.1159      21.858504      92.235742      10305.869      21.761803      8.8469535    
      4000   202.97898     -3035.7416      22.642611     -1467.1032      10315.746      21.768753      8.8384829    
      4500   191.4103      -3035.8674      21.352108      1615.1504      10290.648      21.751084      8.860039     
      5000   200.41416     -3036.3425      22.356501      2159.1341      10285.308      21.747321      8.8646389    
      5500   200.32666     -3035.433       22.34674      -2674.545       10326.039      21.77599       8.8296727    
      6000   199.9613      -3035.744       22.305983      628.70286      10299.988      21.757662      8.8520051    
      6500   199.62368     -3035.6343      22.268322      3120.5282      10281.331      21.744518      8.8680677    
      7000   199.2292      -3035.1909      22.224317     -1516.3115      10317.777      21.770181      8.8367432    
      7500   197.87221     -3035.444       22.072943     -2759.0587      10326.414      21.776254      8.8293516    
      8000   197.13468     -3036.3076      21.99067       2549.4466      10282.174      21.745112      8.8673413    
      8500   200.03448     -3035.9598      22.314147      364.42829      10300.951      21.758341      8.8511768    
      9000   206.40087     -3035.8606      23.024328     -1107.0412      10313.057      21.766861      8.8407872    
      9500   204.34443     -3036.5078      22.794929      1316.3686      10291.996      21.752034      8.8588787    
     10000   202.75842     -3037.0101      22.618007     -1096.386       10308.269      21.763492      8.8448939    
     10500   200.8744      -3035.1253      22.407841     -191.13213      10308.027      21.763322      8.8451012    
     11000   205.2777      -3035.471       22.899037      261.27494      10303.769      21.760325      8.8487561    
     11500   193.77371     -3036.6406      21.615749      825.59585      10294.14       21.753544      8.8570337    
     12000   199.08662     -3035.4623      22.208412     -65.203271      10305.086      21.761252      8.8476256    
     12500   203.97582     -3036.094       22.753809     -1568.7284      10315.444      21.76854       8.8387419    
     13000   200.51858     -3036.4206      22.36815       1496.7384      10290.495      21.750976      8.8601708    
     13500   201.28151     -3036.1322      22.453255      1212.432       10293.967      21.753422      8.8571822    
     14000   204.1202      -3035.6449      22.769916     -1485.7693      10315.714      21.76873       8.8385101    
     14500   202.4967      -3035.8942      22.588812     -224.05642      10305.165      21.761307      8.8475579    
     15000   200.15184     -3036.4142      22.327239      3246.6689      10276.748      21.741287      8.8720224    
     15500   196.96962     -3036.2184      21.972258     -3582.2713      10328.985      21.778061      8.8271539    
     16000   200.02155     -3034.9403      22.312705     -992.18197      10314.358      21.767777      8.8396718    
     16500   199.91007     -3035.8431      22.30027       2827.3556      10282.019      21.745003      8.8674748    
     17000   196.75262     -3035.9307      21.948051     -895.16725      10309.916      21.764651      8.8434808    
     17500   200.96927     -3037.113       22.418424     -487.56443      10302.797      21.75964       8.8495915    
     18000   196.10621     -3035.7613      21.875943      788.4416       10297.38       21.755827      8.8542462    
     18500   204.41287     -3035.7037      22.802563     -1362.8027      10314.83       21.768109      8.8392673    
     19000   197.35131     -3035.1207      22.014836      507.28391      10302.709      21.759578      8.8496672    
     19500   193.80274     -3035.085       21.618987      2515.333       10287.244      21.748685      8.8629711    
     20000   206.20708     -3036.0872      23.00271      -2128.0101      10319.624      21.77148       8.835161     
     20500   206.3646      -3037.0985      23.020282     -1603.0793      10312.084      21.766177      8.841621     
     21000   203.38863     -3036.7863      22.688307      1720.8822      10287.609      21.748943      8.8626562    
     21500   195.91358     -3035.7708      21.854454     -1258.86        10313.297      21.76703       8.8405816    
     22000   208.8804      -3034.4308      23.300923     -1813.6209      10323.331      21.774087      8.8319884    
     22500   203.23898     -3036.1292      22.671614      3396.7875      10277.156      21.741574      8.8716709    
     23000   199.04879     -3036.0591      22.204192     -339.47479      10305.326      21.761421      8.8474196    
     23500   191.3459      -3035.9878      21.344923     -1529.763       10313.393      21.767098      8.8404988    
     24000   201.01345     -3035.7689      22.423353      624.96862      10299.388      21.75724       8.8525206    
     24500   202.19785     -3035.0209      22.555474      1149.7455      10297.258      21.75574       8.8543516    
     25000   199.27724     -3033.8024      22.229676     -865.89955      10317.245      21.769807      8.8371986    
     25500   197.6673      -3034.7455      22.050084      357.17171      10305.027      21.76121       8.8476764    
     26000   196.46228     -3035.6737      21.915663      1536.906       10292.604      21.752462      8.8583555    
     26500   198.56098     -3036.9935      22.149777     -448.16329      10303.4        21.760065      8.8490737    
     27000   194.58645     -3036.4397      21.706411      223.24452      10299.401      21.757249      8.8525094    
     27500   205.82067     -3035.8666      22.959605     -676.0365       10308.505      21.763658      8.8446912    
     28000   198.43197     -3035.4126      22.135385     -1815.3898      10318.589      21.770753      8.8360472    
     28500   199.6566      -3036.1068      22.271994      1752.9395      10289.325      21.750152      8.8611786    
     29000   190.93607     -3036.415       21.299206      2466.5951      10282.342      21.745231      8.8671958    
     29500   195.57718     -3035.3258      21.816928     -3799.4389      10333.837      21.781471      8.8230095    
     30000   194.58343     -3035.0107      21.706075      352.93474      10303.134      21.759877      8.8493021    
Loop time of 48.9766 on 1 procs for 30000 steps with 864 atoms

Performance: 52.923 ns/day, 0.453 hours/ns, 612.538 timesteps/s, 529.233 katom-step/s
96.5% CPU use with 1 MPI tasks x 1 OpenMP threads

MPI task timing breakdown:
Section |  min time  |  avg time  |  max time  |%varavg| %total
---------------------------------------------------------------
Pair    | 46.964     | 46.964     | 46.964     |   0.0 | 95.89
Neigh   | 0          | 0          | 0          |   0.0 |  0.00
Comm    | 0.39769    | 0.39769    | 0.39769    |   0.0 |  0.81
Output  | 0.0017562  | 0.0017562  | 0.0017562  |   0.0 |  0.00
Modify  | 1.4418     | 1.4418     | 1.4418     |   0.0 |  2.94
Other   |            | 0.1718     |            |       |  0.35

Nlocal:            864 ave         864 max         864 min
Histogram: 1 0 0 0 0 0 0 0 0 0
Nghost:           2565 ave        2565 max        2565 min
Histogram: 1 0 0 0 0 0 0 0 0 0
Neighs:          57163 ave       57163 max       57163 min
Histogram: 1 0 0 0 0 0 0 0 0 0

Total # of neighbors = 57163
Ave neighs/atom = 66.16088
Neighbor list builds = 0
Dangerous builds = 0
RESULT T=200 lx=21.759877475475271069 vol=10303.133731774798434 pe_per_atom=-3.5127438272660098662 density=8.8493020685265015857 pressure=352.93473782183326648
Total wall time: 0:01:15
