LAMMPS (7 Feb 2024 - Update 1)
OMP_NUM_THREADS environment is not set. Defaulting to 1 thread. (src/comm.cpp:98)
  using 1 OpenMP thread(s) per MPI task
Lattice spacing in x,y,z = 3.615 3.615 3.615
Created orthogonal box = (0 0 0) to (21.69 21.69 21.69)
  1 by 1 by 1 MPI processor grid
Created 864 atoms
  using lattice units in orthogonal box = (0 0 0) to (21.69 21.69 21.69)
  create_atoms CPU = 0.001 seconds
Reading eam potential file Cu_u3.eam with DATE: 2007-06-11
Neighbor list info ...
  update: every = 1 steps, delay = 0 steps, check = yes
  max neighbors/atom: 2000, page size: 100000
  master list distance cutoff = 6.95
  ghost atom cutoff = 6.95
  binsize = 3.475, bins = 7 7 7
  1 neighbor lists, perpetual/occasional/extra = 1 0 0
  (1) pair eam, perpetual
      attributes: half, newton on
      pair build: half/bin/atomonly/newton
      stencil: half/bin/3d
      bin: standard
Setting up cg style minimization ...
  Unit style    : metal
  Current step  : 0
Per MPI rank memory allocation (min/avg/max) = 4.547 | 4.547 | 4.547 Mbytes
   Step          Temp          E_pair         E_mol          TotEng         Press     
         0   0             -3058.56        0             -3058.56       -0.027860375  
         1   0             -3058.56        0             -3058.56       -0.027860375  
Loop time of 0.00382027 on 1 procs for 1 steps with 864 atoms

96.7% CPU use with 1 MPI tasks x 1 OpenMP threads

Minimization stats:
  Stopping criterion = energy tolerance
  Energy initial, next-to-last, final = 
     -3058.56000196872  -3058.56000196872  -3058.56000196872
  Force two-norm initial, final = 2.9749932e-13 2.9467073e-13
  Force max component initial, final = 1.4786783e-14 1.4759027e-14
  Final line search alpha, max atom move = 1 1.4759027e-14
  Iterations, force evaluations = 1 2

MPI task timing breakdown:
Section |  min time  |  avg time  |  max time  |%varavg| %total
---------------------------------------------------------------
Pair    | 0.0037429  | 0.0037429  | 0.0037429  |   0.0 | 97.97
Neigh   | 0          | 0          | 0          |   0.0 |  0.00
Comm    | 2.9204e-05 | 2.9204e-05 | 2.9204e-05 |   0.0 |  0.76
Output  | 0          | 0          | 0          |   0.0 |  0.00
Modify  | 0          | 0          | 0          |   0.0 |  0.00
Other   |            | 4.816e-05  |            |       |  1.26

Nlocal:            864 ave         864 max         864 min
Histogram: 1 0 0 0 0 0 0 0 0 0
Nghost:           2565 ave        2565 max        2565 min
Histogram: 1 0 0 0 0 0 0 0 0 0
Neighs:          57888 ave       57888 max       57888 min
Histogram: 1 0 0 0 0 0 0 0 0 0

Total # of neighbors = 57888
Ave neighs/atom = 67
Neighbor list builds = 0
Dangerous builds = 0
Setting up Verlet run ...
  Unit style    : metal
  Current step  : 0
  Time step     : 0.001
Per MPI rank memory allocation (min/avg/max) = 3.422 | 3.422 | 3.422 Mbytes
   Step          Temp          PotEng         KinEng         Press          Volume           Lx          Density    
         0   800           -3058.56        89.241204      9341.2408      10204.193      21.69          8.9351058    
       500   710.21055     -2973.5736      79.225056     -8872.0532      10660.726      22.008761      8.5524704    
      1000   775.8575      -2960.1417      86.548072      2154.3041      10627.819      21.986092      8.5789514    
      1500   859.83534     -2959.8766      95.915926     -239.80118      10656.427      22.005802      8.5559209    
      2000   742.72874     -2957.125       82.852509     -168.63943      10657.218      22.006346      8.5552859    
      2500   796.23172     -2965.0973      88.820847      1947.8898      10604.482      21.969988      8.5978305    
      3000   821.7106      -2962.756       91.663054     -1533.3896      10652.115      22.002833      8.5593842    
      3500   846.53286     -2962.1315      94.432015     -3487.0516      10673.443      22.017509      8.5422804    
      4000   802.00588     -2960.2377      89.464963      3733.5487      10616.121      21.978022      8.588405     
      4500   760.659       -2961.2891      84.852657     -1083.3365      10646.284      21.998818      8.5640718    
      5000   818.29659     -2955.2641      91.282217      1131.1873      10660.733      22.008766      8.5524646    
      5500   819.50207     -2960.8382      91.416689      1897.2763      10628.207      21.98636       8.5786385    
      6000   775.08048     -2959.8522      86.461394     -5471.8257      10691.326      22.029799      8.5279919    
      6500   794.58218     -2965.0848      88.636838      8830.2665      10553.414      21.934664      8.6394359    
      7000   794.87312     -2962.6219      88.669293     -4290.212       10669.929      22.015092      8.5450936    
      7500   804.02291     -2956.0251      89.689965     -911.74265      10671.797      22.016377      8.5435979    
      8000   803.9999      -2963.002       89.687399      2925.6012      10610.848      21.974384      8.5926723    
      8500   819.86936     -2957.1699      91.457661     -3285.3004      10688.305      22.027723      8.5304024    
      9000   823.99117     -2960.5716      91.917455      2427.5095      10627.359      21.985775      8.5793227    
      9500   793.78138     -2960.4021      88.547508     -2041.6109      10663.649      22.010772      8.5501262    
     10000   802.56682     -2959.8975      89.527536      1049.0093      10638.051      21.993146      8.5706999    
     10500   807.60079     -2963.3858      90.089084      1790.3716      10618.176      21.979441      8.5867424    
     11000   846.74401     -2960.7202      94.455568     -5983.7893      10698.987      22.035059      8.5218852    
     11500   820.76492     -2963.7629      91.557562      3125.7721      10610.511      21.974151      8.5929457    
     12000   776.86906     -2964.7669      86.660913     -2556.0936      10646.153      21.998728      8.5641775    
     12500   762.65146     -2960.73        85.074918     -36.825018      10642.69       21.996343      8.5669637    
     13000   861.22955     -2963.2123      96.071453      3681.6523      10608.735      21.972925      8.5943842    
     13500   836.53166     -2960.753       93.316366     -5165.4374      10690.327      22.029112      8.5287892    
     14000   801.95329     -2963.1817      89.459096     -1627.8672      10645.512      21.998286      8.5646931    
     14500   801.23955     -2961.7333      89.379478      3686.9334      10609.936      21.973754      8.5934115    
     15000   806.47513     -2959.4521      89.963514     -5409.4579      10695.123      22.032406      8.5249647    
     15500   800.0773      -2960.3116      89.249827      3659.8153      10614.038      21.976585      8.5900899    
     16000   787.09045     -2961.539       87.801124      65.844153      10637.813      21.992982      8.5708915    
     16500   805.49839     -2960.2152      89.854558     -765.68484      10653.064      22.003487      8.5586212    
     17000   768.89081     -2963.8852      85.770928      3233.2013      10600.917      21.967526      8.6007225    
     17500   779.27521     -2964.1756      86.929323     -3064.8927      10652.698      22.003235      8.5589156    
     18000   805.32464     -2960.4575      89.835176      1397.2093      10636.496      21.992075      8.5719526    
     18500   768.08238     -2962.0251      85.680746      1757.8514      10621.328      21.981616      8.5841941    
     19000   775.71479     -2964.2315      86.532152     -1300.671       10637.804      21.992975      8.5708993    
     19500   792.30017     -2960.6065      88.382276      1941.9482      10627.893      21.986144      8.5788913    
     20000   808.61552     -2957.704       90.202279     -1464.4662      10671.346      22.016067      8.5439593    
Loop time of 27.6966 on 1 procs for 20000 steps with 864 atoms

Performance: 62.390 ns/day, 0.385 hours/ns, 722.111 timesteps/s, 623.904 katom-step/s
96.6% CPU use with 1 MPI tasks x 1 OpenMP threads

MPI task timing breakdown:
Section |  min time  |  avg time  |  max time  |%varavg| %total
---------------------------------------------------------------
Pair    | 26.536     | 26.536     | 26.536     |   0.0 | 95.81
Neigh   | 0.18536    | 0.18536    | 0.18536    |   0.0 |  0.67
Comm    | 0.21929    | 0.21929    | 0.21929    |   0.0 |  0.79
Output  | 0.0013004  | 0.0013004  | 0.0013004  |   0.0 |  0.00
Modify  | 0.66765    | 0.66765    | 0.66765    |   0.0 |  2.41
Other   |            | 0.08737    |            |       |  0.32

Nlocal:            864 ave         864 max         864 min
Histogram: 1 0 0 0 0 0 0 0 0 0
Nghost:           2569 ave        2569 max        2569 min
Histogram: 1 0 0 0 0 0 0 0 0 0
Neighs:          50718 ave       50718 max       50718 min
Histogram: 1 0 0 0 0 0 0 0 0 0

Total # of neighbors = 50718
Ave neighs/atom = 58.701389
Neighbor list builds = 105
Dangerous builds = 0
Setting up Verlet run ...
  Unit style    : metal
  Current step  : 0
  Time step     : 0.001
Per MPI rank memory allocation (min/avg/max) = 3.423 | 3.423 | 3.423 Mbytes
   Step          Temp          PotEng         KinEng         Press          Volume           Lx          Density    
         0   808.61552     -2957.704       90.202279     -1464.4662      10671.346      22.016067      8.5439593    
       500   810.5538      -2962.5308      90.418497     -1666.4221      10651.723      22.002564      8.5596988    
      1000   785.23851     -2960.0663      87.594538      2752.0875      10624.042      21.983488      8.5820014    
      1500   797.58849     -2952.1035      88.972196     -1158.6735      10688.991      22.028194      8.5298553    
      2000   811.10563     -2961.7638      90.480054      920.61335      10631.349      21.988527      8.5761026    
      2500   783.94733     -2963.7719      87.450504     -1024.9636      10640.806      21.995044      8.5684812    
      3000   823.60821     -2964.321       91.874735     -294.03808      10633.414      21.98995       8.5744375    
      3500   835.75192     -2961.2195      93.229384     -965.0724       10653.049      22.003477      8.5586334    
      4000   805.35167     -2964.3442      89.83819      -6514.892       10684.799      22.025314      8.5332016    
      4500   768.44288     -2963.0052      85.72096       10323.15       10544.436      21.928442      8.6467918    
      5000   749.23847     -2958.1582      83.578679     -4044.077       10679.546      22.021705      8.5373986    
      5500   834.29396     -2963.8631      93.066746     -1879.1314      10647.886      21.999921      8.5627837    
      6000   826.69784     -2959.904       92.219388      1186.1106      10641.592      21.995586      8.5678484    
      6500   793.43189     -2958.9046      88.508522     -1518.0761      10661.514      22.009304      8.5518378    
      7000   776.65028     -2964.0516      86.636508     -592.83002      10634.545      21.99073       8.5735252    
      7500   861.40398     -2965.1247      96.09091       2556.1171      10607.788      21.972271      8.5951515    
      8000   754.84691     -2956.2854      84.204309     -5918.6584      10706.184      22.039999      8.5161566    
      8500   814.27762     -2965.7767      90.833895      1518.3472      10609.055      21.973146      8.5941249    
      9000   787.60702     -2959.5911      87.858748      6354.575       10590.275      21.960172      8.6093652    
      9500   799.32307     -2955.587       89.165691     -6553.7514      10719.684      22.049259      8.5054319    
     10000   816.84239     -2960.4034      91.119998      3212.4415      10618.422      21.979611      8.5865435    
     10500   795.64067     -2963.6384      88.754914     -1639.4347      10644.468      21.997567      8.5655331    
     11000   771.37222     -2965.2911      86.047732     -364.37425      10626.057      21.984877      8.5803743    
     11500   823.13615     -2962.045       91.822077      1546.4923      10627.665      21.985987      8.5790754    
     12000   770.50607     -2956.4528      85.951112      1082.1811      10648.771      22.000531      8.5620721    
     12500   802.53216     -2966.6029      89.52367      -3361.8825      10645.803      21.998487      8.564459     
     13000   772.8544      -2964.9633      86.213072      7023.4323      10565.633      21.943127      8.6294442    
     13500   786.6399      -2960.1402      87.750864     -5139.395       10685.469      22.025775      8.5326665    
     14000   814.07071     -2961.1058      90.810813      1945.9082      10629.342      21.987142      8.5777224    
     14500   793.63539     -2964.9605      88.531223      4619.2056      10587.728      21.958411      8.6114364    
     15000   762.86734     -2959.7547      85.099        -4642.2358      10683.225      22.024233      8.5344588    
     15500   818.93279     -2960.1372      91.353186      7479.0613      10586.891      21.957833      8.6121166    
     16000   805.33541     -2957.548       89.836377     -5304.3688      10697.646      22.034139      8.5229534    
     16500   796.14451     -2961.3785      88.811118      1496.2926      10629.988      21.987588      8.5772008    
     17000   815.85082     -2962.9584      91.009386      534.99913      10630.279      21.987789      8.5769658    
     17500   809.22679     -2960.172       90.270467     -1405.1045      10659.137      22.007667      8.5537455    
     18000   805.11726     -2965.2445      89.812042      2958.1479      10598.721      21.966009      8.6025042    
     18500   801.78461     -2964.1722      89.44028      -2935.4748      10652.867      22.003351      8.5587799    
     19000   798.04445     -2957.9316      89.023059     -2329.7381      10674.627      22.018323      8.5413326    
     19500   820.30066     -2960.3334      91.505773      7076.2124      10589.531      21.959658      8.6099701    
     20000   778.51596     -2959.8282      86.844627     -7349.7216      10709.944      22.042579      8.5131667    
     20500   780.41471     -2964.9245      87.056436      5358.9845      10579.757      21.9529        8.6179243    
     21000   795.21928     -2956.5987      88.707908      1006.1107      10651.622      22.002494      8.55978      
     21500   823.71296     -2960.5115      91.886421     -3988.262       10680.984      22.022693      8.5362496    
     22000   824.84692     -2964.7731      92.012916      2075.9974      10613.959      21.976531      8.5901541    
     22500   791.40403     -2961.5005      88.282311     -1833.0693      10655.575      22.005215      8.556605     
     23000   828.2162      -2958.5732      92.388764     -1244.4334      10663.862      22.010919      8.5499554    
     23500   800.43179     -2962.8013      89.289371      1781.3769      10621.884      21.981999      8.583745     
     24000   782.79667     -2960.8559      87.322146     -2312.3481      10660.506      22.00861       8.5526469    
     24500   824.98825     -2968.8628      92.028681     -170.57759      10615.13       21.977339      8.5892066    
     25000   809.14772     -2966.2404      90.261646      690.00287      10616.959      21.978601      8.5877267    
     25500   808.57128     -2962.2305      90.197343     -1615.2562      10651.83       22.002637      8.559613     
     26000   838.65995     -2959.9276      93.55378      -2154.753       10670.53       22.015506      8.5446125    
     26500   819.29684     -2963.2314      91.393795      575.3005       10629.426      21.987201      8.577654     
     27000   797.6034      -2960.239       88.97386      -1494.3566      10657.849      22.006781      8.5547787    
     27500   796.8151      -2965.9223      88.885924      11.689321      10622.926      21.982718      8.582903     
     28000   808.41312     -2961.1852      90.1797        2833.4762      10620.56       21.981086      8.5848151    
     28500   806.47114     -2961.0108      89.963069     -6559.145       10696.515      22.033362      8.5238546    
     29000   772.94563     -2961.2741      86.223248      5918.1827      10591.206      21.960816      8.6086078    
     29500   809.78776     -2961.6282      90.333044     -821.32742      10647.096      21.999377      8.5634192    
     30000   798.59072     -2961.8302      89.083997     -6016.9993      10689.693      22.028677      8.5292949    
Loop time of 41.8546 on 1 procs for 30000 steps with 864 atoms

Performance: 61.929 ns/day, 0.388 hours/ns, 716.768 timesteps/s, 619.287 katom-step/s
96.5% CPU use with 1 MPI tasks x 1 OpenMP threads

MPI task timing breakdown:
Section |  min time  |  avg time  |  max time  |%varavg| %total
---------------------------------------------------------------
Pair    | 40.032     | 40.032     | 40.032     |   0.0 | 95.64
Neigh   | 0.28966    | 0.28966    | 0.28966    |   0.0 |  0.69
Comm    | 0.32692    | 0.32692    | 0.32692    |   0.0 |  0.78
Output  | 0.0013479  | 0.0013479  | 0.0013479  |   0.0 |  0.00
Modify  | 1.0744     | 1.0744     | 1.0744     |   0.0 |  2.57
Other   |            | 0.1307     |            |       |  0.31

Nlocal:            864 ave         864 max         864 min
Histogram: 1 0 0 0 0 0 0 0 0 0
Nghost:           2571 ave        2571 max        2571 min
Histogram: 1 0 0 0 0 0 0 0 0 0
Neighs:          51073 ave       51073 max       51073 min
Histogram: 1 0 0 0 0 0 0 0 0 0

Total # of neighbors = 51073
Ave neighs/atom = 59.112269
Neighbor list builds = 166
Dangerous builds = 0
RESULT T=800 lx=22.028676662732181057 vol=10689.6928130344495 pe_per_atom=-3.4280441652877500225 density=8.529294923585196031 pressure=-6016.9992718253051862
Total wall time: 0:01:09
