LAMMPS (7 Feb 2024 - Update 1)
OMP_NUM_THREADS environment is not set. Defaulting to 1 thread. (src/comm.cpp:98)
  using 1 OpenMP thread(s) per MPI task
Lattice spacing in x,y,z = 3.615 3.615 3.615
Created orthogonal box = (0 0 0) to (21.69 21.69 21.69)
  1 by 1 by 1 MPI processor grid
Created 864 atoms
  using lattice units in orthogonal box = (0 0 0) to (21.69 21.69 21.69)
  create_atoms CPU = 0.001 seconds
Reading eam potential file Cu_u3.eam with DATE: 2007-06-11
Neighbor list info ...
  update: every = 1 steps, delay = 0 steps, check = yes
  max neighbors/atom: 2000, page size: 100000
  master list distance cutoff = 6.95
  ghost atom cutoff = 6.95
  binsize = 3.475, bins = 7 7 7
  1 neighbor lists, perpetual/occasional/extra = 1 0 0
  (1) pair eam, perpetual
      attributes: half, newton on
      pair build: half/bin/atomonly/newton
      stencil: half/bin/3d
      bin: standard
Setting up cg style minimization ...
  Unit style    : metal
  Current step  : 0
Per MPI rank memory allocation (min/avg/max) = 4.547 | 4.547 | 4.547 Mbytes
   Step          Temp          E_pair         E_mol          TotEng         Press     
         0   0             -3058.56        0             -3058.56       -0.027860375  
         1   0             -3058.56        0             -3058.56       -0.027860375  
Loop time of 0.0125593 on 1 procs for 1 steps with 864 atoms

96.3% CPU use with 1 MPI tasks x 1 OpenMP threads

Minimization stats:
  Stopping criterion = energy tolerance
  Energy initial, next-to-last, final = 
     -3058.56000196872  -3058.56000196872  -3058.56000196872
  Force two-norm initial, final = 2.9749932e-13 2.9467073e-13
  Force max component initial, final = 1.4786783e-14 1.4759027e-14
  Final line search alpha, max atom move = 1 1.4759027e-14
  Iterations, force evaluations = 1 2

MPI task timing breakdown:
Section |  min time  |  avg time  |  max time  |%varavg| %total
---------------------------------------------------------------
Pair    | 0.012266   | 0.012266   | 0.012266   |   0.0 | 97.67
Neigh   | 0          | 0          | 0          |   0.0 |  0.00
Comm    | 0.00010716 | 0.00010716 | 0.00010716 |   0.0 |  0.85
Output  | 0          | 0          | 0          |   0.0 |  0.00
Modify  | 0          | 0          | 0          |   0.0 |  0.00
Other   |            | 0.0001858  |            |       |  1.48

Nlocal:            864 ave         864 max         864 min
Histogram: 1 0 0 0 0 0 0 0 0 0
Nghost:           2565 ave        2565 max        2565 min
Histogram: 1 0 0 0 0 0 0 0 0 0
Neighs:          57888 ave       57888 max       57888 min
Histogram: 1 0 0 0 0 0 0 0 0 0

Total # of neighbors = 57888
Ave neighs/atom = 67
Neighbor list builds = 0
Dangerous builds = 0
Setting up Verlet run ...
  Unit style    : metal
  Current step  : 0
  Time step     : 0.001
Per MPI rank memory allocation (min/avg/max) = 3.422 | 3.422 | 3.422 Mbytes
   Step          Temp          PotEng         KinEng         Press          Volume           Lx          Density    
         0   400           -3058.56        44.620602      4670.6065      10204.193      21.69          8.9351058    
       500   369.86198     -3017.6575      41.25866      -3583.3944      10414.341      21.837886      8.7548068    
      1000   394.54012     -3014.0809      44.011544     -2624.9594      10422.683      21.843715      8.7477998    
      1500   376.10217     -3006.9175      41.954764      4288.5159      10392.435      21.822564      8.7732611    
      2000   408.1121      -3010.7963      45.525518     -1086.3364      10422.778      21.843782      8.7477197    
      2500   397.98247     -3013.2286      44.395544     -1842.2276      10417.77       21.840283      8.751925     
      3000   414.40707     -3015.073       46.227733      654.82067      10393.419      21.823252      8.7724303    
      3500   403.96371     -3011.9228      45.06276       679.81264      10403.873      21.830567      8.7636158    
      4000   407.9778      -3010.8394      45.510537     -2461.0471      10431.718      21.850026      8.7402227    
      4500   382.44535     -3010.7572      42.662355      2857.5405      10387.659      21.81922       8.7772944    
      5000   401.28618     -3010.5777      44.764077      1937.3463      10399.02       21.827172      8.7677055    
      5500   410.31623     -3009.2468      45.771393     -6050.0218      10468.67       21.875795      8.7093722    
      6000   386.98913     -3012.3322      43.169219      3081.1105      10383.377      21.816222      8.7809145    
      6500   408.88872     -3013.5314      45.612153      3219.6102      10377.656      21.812214      8.7857548    
      7000   395.91295     -3009.7247      44.164685     -2510.762       10436.945      21.853674      8.7358461    
      7500   402.76082     -3010.9214      44.928576      1166.6623      10403.359      21.830208      8.7640483    
      8000   400.77049     -3013.3237      44.706551      103.20471      10402.074      21.829309      8.7651307    
      8500   392.91098     -3012.6199      43.829811     -1820.1993      10419.542      21.841521      8.7504367    
      9000   407.96743     -3011.3443      45.509381      1415.7433      10399.649      21.827612      8.7671752    
      9500   411.01204     -3011.4315      45.849011     -97.292023      10411.206      21.835695      8.7574427    
     10000   392.50433     -3012.6349      43.784449     -2068.4749      10421.999      21.843238      8.7483735    
     10500   405.56003     -3013.6017      45.240832      3071.6035      10378.184      21.812584      8.7853077    
     11000   396.25447     -3012.0557      44.202782      67.530323      10407.023      21.83277       8.7609633    
     11500   414.24639     -3012.707       46.209808     -5907.1409      10454.525      21.865937      8.721156     
     12000   417.22379     -3012.9464      46.541942      3083.6944      10383.512      21.816317      8.7807998    
     12500   407.31218     -3014.6335      45.436287      1730.6132      10384.994      21.817354      8.7795468    
     13000   379.58147     -3014.1427      42.342885     -4133.6744      10432.493      21.850567      8.7395735    
     13500   409.4173      -3012.2226      45.671116      602.48447      10404.454      21.830974      8.7631257    
     14000   423.6644      -3012.6723      47.260401      150.16866      10406.759      21.832586      8.7611849    
     14500   405.89542     -3013.3739      45.278245     -2151.9718      10421.625      21.842976      8.748688     
     15000   380.75249     -3013.6208      42.473514      729.27431      10394.794      21.824215      8.7712698    
     15500   395.43327     -3012.9909      44.111177      716.55454      10398.646      21.826911      8.7680204    
     16000   397.66539     -3010.5561      44.360173     -812.1425       10419.999      21.84184       8.7500527    
     16500   389.83913     -3011.8737      43.487142      1678.5867      10396.536      21.825434      8.7697998    
     17000   381.14115     -3013.4396      42.516868      976.62767      10393.32       21.823183      8.7725142    
     17500   404.24375     -3013.185       45.093999     -4525.0371      10440.193      21.855941      8.7331283    
     18000   404.35483     -3012.1081      45.106389      3323.0296      10383.602      21.816379      8.780724     
     18500   394.1595      -3013.0049      43.969085      1390.0737      10393.21       21.823106      8.7726069    
     19000   388.09843     -3013.4877      43.292965     -3650.8584      10430.604      21.849248      8.7411562    
     19500   408.7758      -3013.472       45.599556     -51.970737      10404.107      21.830731      8.763418     
     20000   406.05875     -3011.5088      45.296464      4601.5369      10374.145      21.809754      8.7887281    
Loop time of 39.7421 on 1 procs for 20000 steps with 864 atoms

Performance: 43.480 ns/day, 0.552 hours/ns, 503.245 timesteps/s, 434.804 katom-step/s
96.5% CPU use with 1 MPI tasks x 1 OpenMP threads

MPI task timing breakdown:
Section |  min time  |  avg time  |  max time  |%varavg| %total
---------------------------------------------------------------
Pair    | 37.953     | 37.953     | 37.953     |   0.0 | 95.50
Neigh   | 0          | 0          | 0          |   0.0 |  0.00
Comm    | 0.35167    | 0.35167    | 0.35167    |   0.0 |  0.88
Output  | 0.0019065  | 0.0019065  | 0.0019065  |   0.0 |  0.00
Modify  | 1.2644     | 1.2644     | 1.2644     |   0.0 |  3.18
Other   |            | 0.1707     |            |       |  0.43

Nlocal:            864 ave         864 max         864 min
Histogram: 1 0 0 0 0 0 0 0 0 0
Nghost:           2565 ave        2565 max        2565 min
Histogram: 1 0 0 0 0 0 0 0 0 0
Neighs:          57888 ave       57888 max       57888 min
Histogram: 1 0 0 0 0 0 0 0 0 0

Total # of neighbors = 57888
Ave neighs/atom = 67
Neighbor list builds = 0
Dangerous builds = 0
Setting up Verlet run ...
  Unit style    : metal
  Current step  : 0
  Time step     : 0.001
Per MPI rank memory allocation (min/avg/max) = 3.422 | 3.422 | 3.422 Mbytes
   Step          Temp          PotEng         KinEng         Press          Volume           Lx          Density    
         0   406.05875     -3011.5088      45.296464      4601.5369      10374.145      21.809754      8.7887281    
       500   418.01151     -3011.7178      46.629813     -4594.5708      10446.861      21.860593      8.7275537    
      1000   391.90561     -3012.4281      43.717661      600.38155      10400.892      21.828482      8.7661269    
      1500   408.11677     -3013.1575      45.526039      2191.6101      10387.07       21.818808      8.7777925    
      2000   427.55294     -3010.237       47.694174     -1360.7905      10428.767      21.847965      8.742696     
      2500   399.87838     -3012.7069      44.607035     -1831.3589      10418.559      21.840834      8.7512623    
      3000   409.80279     -3014.0783      45.714118      995.40496      10393.69       21.823442      8.7722013    
      3500   403.73357     -3011.654       45.037088      747.32527      10403.386      21.830226      8.7640255    
      4000   386.56943     -3012.2682      43.122401     -2456.5948      10424.224      21.844792      8.7465064    
      4500   395.26872     -3012.5063      44.092821      1612.83        10393.011      21.822967      8.7727745    
      5000   416.06295     -3012.4159      46.412448      3966.4064      10377.141      21.811853      8.7861912    
      5500   386.93619     -3013.833       43.163315     -7036.3238      10456.201      21.867106      8.7197578    
      6000   388.61891     -3013.1074      43.351025      993.38047      10396.817      21.82563       8.7695634    
      6500   401.19742     -3012.8725      44.754176      3441.9536      10379.529      21.813527      8.7841694    
      7000   394.48438     -3010.9859      44.005326     -2667.6327      10432.85       21.850816      8.7392749    
      7500   404.10917     -3008.3451      45.078986     -55.934154      10422.115      21.843318      8.7482766    
      8000   392.51341     -3012.9175      43.785462      1930.4981      10388.031      21.819481      8.7769804    
      8500   400.8126      -3014.3925      44.711249     -2041.2765      10415.03       21.838368      8.7542278    
      9000   406.64018     -3012.5991      45.361324     -100.5991       10407.886      21.833373      8.7602368    
      9500   407.7231      -3012.1251      45.482125      2075.0193      10393.316      21.823181      8.7725171    
     10000   405.48974     -3010.6192      45.232991     -2553.315       10434.273      21.851809      8.7380829    
     10500   399.20248     -3012.5188      44.531637     -273.30361      10410.668      21.835318      8.7578959    
     11000   410.23814     -3014.8372      45.762682      3617.2955      10371.483      21.807889      8.7909838    
     11500   403.73984     -3012.186       45.037787     -2969.5993      10431.927      21.850171      8.7400481    
     12000   399.71362     -3011.2227      44.588656     -2682.5917      10433.881      21.851535      8.7384112    
     12500   400.68611     -3013.4663      44.697139      5894.5634      10357.09       21.797796      8.8032011    
     13000   416.94769     -3010.3705      46.511142     -1238.7609      10426.832      21.846614      8.7443187    
     13500   416.64751     -3012.557       46.477657     -4753.8062      10445.655      21.859752      8.7285612    
     14000   396.4867      -3012.0734      44.228688      4603.247       10372.503      21.808604      8.7901193    
     14500   405.10209     -3012.828       45.189747      618.36334      10400.922      21.828503      8.7661016    
     15000   420.75314     -3012.1115      46.935647     -2783.0309      10432.406      21.850506      8.7396463    
     15500   393.97835     -3010.9677      43.948878      2082.8761      10396.506      21.825413      8.7698258    
     16000   388.20579     -3011.7868      43.30494      -515.35106      10413.097      21.837017      8.7558528    
     16500   390.68897     -3015.0812      43.581943     -457.58662      10399.661      21.827621      8.7671648    
     17000   409.66988     -3012.272       45.699291      681.6738       10402.897      21.829884      8.7644374    
     17500   399.32665     -3011.7751      44.545489     -1179.354       10418.778      21.840987      8.7510782    
     18000   401.29854     -3013.5769      44.765456     -1155.3186      10412.617      21.836681      8.7562561    
     18500   400.71374     -3012.1806      44.70022       2774.354       10386.437      21.818365      8.7783272    
     19000   413.65421     -3012.2459      46.143749     -1127.4609      10418.701      21.840934      8.7511426    
     19500   405.01924     -3009.8314      45.180506     -2780.8818      10439.01       21.855115      8.7341178    
     20000   407.13215     -3011.6783      45.416204      4617.3429      10374.503      21.810005      8.7884247    
     20500   396.3475      -3012.6171      44.21316      -665.38631      10411.076      21.835604      8.7575522    
     21000   400.45758     -3011.8056      44.671646     -3843.9971      10439.558      21.855498      8.7336595    
     21500   425.05115     -3010.6546      47.415095      3215.4124      10390.944      21.82152       8.7745194    
     22000   394.03078     -3010.1385      43.954726      722.62734      10410.699      21.83534       8.7578692    
     22500   379.90077     -3012.3735      42.378502     -1570.7554      10417.274      21.839936      8.7523418    
     23000   395.8326      -3013.4693      44.155722      1214.3679      10393.184      21.823088      8.7726285    
     23500   407.40131     -3011.3341      45.446229      426.79047      10407.413      21.833042      8.760635     
     24000   402.31519     -3010.4481      44.878865     -1800.8544      10428.646      21.84788       8.7427978    
     24500   400.4057      -3012.2629      44.665859      716.44922      10401.314      21.828777      8.7657715    
     25000   391.22728     -3012.0563      43.641992      3698.2832      10378.209      21.812602      8.7852866    
     25500   389.94867     -3011.8442      43.499361     -4739.3468      10444.175      21.858719      8.7297986    
     26000   403.83459     -3012.11        45.048357     -592.08666      10413.865      21.837553      8.7552069    
     26500   413.87071     -3011.0821      46.167901      7115.1745      10358.173      21.798556      8.8022801    
     27000   395.61246     -3011.9651      44.131165     -2505.5134      10427.998      21.847428      8.7433409    
     27500   383.38267     -3012.792       42.766914     -542.67121      10408.988      21.834144      8.759309     
     28000   400.4717      -3011.9218      44.673221      2653.7545      10387.694      21.819245      8.7772653    
     28500   406.2853      -3010.1475      45.321737     -451.29477      10419.645      21.841593      8.7503498    
     29000   393.66118     -3010.5449      43.913497     -2675.4192      10433.866      21.851525      8.738424     
     29500   399.10036     -3012.5195      44.520246      2584.0389      10385.933      21.818012      8.7787532    
     30000   388.14644     -3013.9618      43.29832       1221.6506      10391.247      21.821732      8.7742639    
Loop time of 63.7333 on 1 procs for 30000 steps with 864 atoms

Performance: 40.669 ns/day, 0.590 hours/ns, 470.712 timesteps/s, 406.695 katom-step/s
96.4% CPU use with 1 MPI tasks x 1 OpenMP threads

MPI task timing breakdown:
Section |  min time  |  avg time  |  max time  |%varavg| %total
---------------------------------------------------------------
Pair    | 60.915     | 60.915     | 60.915     |   0.0 | 95.58
Neigh   | 0          | 0          | 0          |   0.0 |  0.00
Comm    | 0.52836    | 0.52836    | 0.52836    |   0.0 |  0.83
Output  | 0.001924   | 0.001924   | 0.001924   |   0.0 |  0.00
Modify  | 2.0321     | 2.0321     | 2.0321     |   0.0 |  3.19
Other   |            | 0.2555     |            |       |  0.40

Nlocal:            864 ave         864 max         864 min
Histogram: 1 0 0 0 0 0 0 0 0 0
Nghost:           2565 ave        2565 max        2565 min
Histogram: 1 0 0 0 0 0 0 0 0 0
Neighs:          55127 ave       55127 max       55127 min
Histogram: 1 0 0 0 0 0 0 0 0 0

Total # of neighbors = 55127
Ave neighs/atom = 63.804398
Neighbor list builds = 0
Dangerous builds = 0
RESULT T=400 lx=21.821732210442760902 vol=10391.246945035021781 pe_per_atom=-3.4883816563299601121 density=8.7742638710423417336 pressure=1221.6506322920813545
Total wall time: 0:01:43
