LAMMPS (7 Feb 2024 - Update 1)
OMP_NUM_THREADS environment is not set. Defaulting to 1 thread. (src/comm.cpp:98)
  using 1 OpenMP thread(s) per MPI task
Lattice spacing in x,y,z = 3.615 3.615 3.615
Created orthogonal box = (0 0 0) to (21.69 21.69 21.69)
  1 by 1 by 1 MPI processor grid
Created 864 atoms
  using lattice units in orthogonal box = (0 0 0) to (21.69 21.69 21.69)
  create_atoms CPU = 0.001 seconds
Reading eam potential file Cu_u3.eam with DATE: 2007-06-11
Neighbor list info ...
  update: every = 1 steps, delay = 0 steps, check = yes
  max neighbors/atom: 2000, page size: 100000
  master list distance cutoff = 6.95
  ghost atom cutoff = 6.95
  binsize = 3.475, bins = 7 7 7
  1 neighbor lists, perpetual/occasional/extra = 1 0 0
  (1) pair eam, perpetual
      attributes: half, newton on
      pair build: half/bin/atomonly/newton
      stencil: half/bin/3d
      bin: standard
Setting up cg style minimization ...
  Unit style    : metal
  Current step  : 0
Per MPI rank memory allocation (min/avg/max) = 4.547 | 4.547 | 4.547 Mbytes
   Step          Temp          E_pair         E_mol          TotEng         Press     
         0   0             -3058.56        0             -3058.56       -0.027860375  
         1   0             -3058.56        0             -3058.56       -0.027860375  
Loop time of 0.00490782 on 1 procs for 1 steps with 864 atoms

90.5% CPU use with 1 MPI tasks x 1 OpenMP threads

Minimization stats:
  Stopping criterion = energy tolerance
  Energy initial, next-to-last, final = 
     -3058.56000196872  -3058.56000196872  -3058.56000196872
  Force two-norm initial, final = 2.9749932e-13 2.9467073e-13
  Force max component initial, final = 1.4786783e-14 1.4759027e-14
  Final line search alpha, max atom move = 1 1.4759027e-14
  Iterations, force evaluations = 1 2

MPI task timing breakdown:
Section |  min time  |  avg time  |  max time  |%varavg| %total
---------------------------------------------------------------
Pair    | 0.0047923  | 0.0047923  | 0.0047923  |   0.0 | 97.65
Neigh   | 0          | 0          | 0          |   0.0 |  0.00
Comm    | 3.4102e-05 | 3.4102e-05 | 3.4102e-05 |   0.0 |  0.69
Output  | 0          | 0          | 0          |   0.0 |  0.00
Modify  | 0          | 0          | 0          |   0.0 |  0.00
Other   |            | 8.146e-05  |            |       |  1.66

Nlocal:            864 ave         864 max         864 min
Histogram: 1 0 0 0 0 0 0 0 0 0
Nghost:           2565 ave        2565 max        2565 min
Histogram: 1 0 0 0 0 0 0 0 0 0
Neighs:          57888 ave       57888 max       57888 min
Histogram: 1 0 0 0 0 0 0 0 0 0

Total # of neighbors = 57888
Ave neighs/atom = 67
Neighbor list builds = 0
Dangerous builds = 0
Setting up Verlet run ...
  Unit style    : metal
  Current step  : 0
  Time step     : 0.001
Per MPI rank memory allocation (min/avg/max) = 3.422 | 3.422 | 3.422 Mbytes
   Step          Temp          PotEng         KinEng         Press          Volume           Lx          Density    
         0   600           -3058.56        66.930903      7005.9237      10204.193      21.69          8.9351058    
       500   552.1239      -2996.7443      61.590253      6208.0922      10432.556      21.85061       8.739521     
      1000   589.54072     -2989.1797      65.764155      372.74561      10511.42       21.905532      8.673951     
      1500   637.31934     -2986.2722      71.093932     -4450.3729      10564.408      21.942278      8.6304453    
      2000   601.65546     -2986.3028      67.115572     -2966.3483      10549.675      21.932073      8.642498     
      2500   577.13968     -2988.5228      64.3808        17.351611      10514.359      21.907573      8.6715263    
      3000   599.37796     -2988.8366      66.861514      1346.176       10501.714      21.898787      8.681968     
      3500   609.69579     -2985.134       68.012483      2650.0176      10507.837      21.903042      8.6769088    
      4000   616.24463     -2985.327       68.743016      1744.485       10515.386      21.908286      8.6706799    
      4500   590.51214     -2986.8667      65.872518      619.19291      10515.482      21.908353      8.6706002    
      5000   603.79622     -2988.5194      67.354377     -2356.928       10535.658      21.922356      8.6539962    
      5500   595.0319      -2984.432       66.376705     -3797.2722      10560.968      21.939896      8.6332566    
      6000   580.39744     -2985.4011      64.744208     -2598.7594      10546.312      21.929743      8.6452535    
      6500   574.28608     -2992.314       64.062477      535.85759      10491.982      21.892021      8.6900207    
      7000   613.61016     -2986.3792      68.449137      3082.6223      10498.094      21.896271      8.6849616    
      7500   622.36256     -2988.9292      69.425481      4562.7542      10478.975      21.88297       8.7008071    
      8000   589.80128     -2988.6579      65.79322       4661.4918      10477.501      21.881944      8.7020315    
      8500   594.54099     -2987.6581      66.321942      1604.2885      10504.585      21.900782      8.6795952    
      9000   644.88585     -2984.3663      71.937987     -4359.3632      10569.72       21.945956      8.6261073    
      9500   596.4637      -2987.933       66.536423     -1892.5407      10534.296      21.921411      8.6551145    
     10000   585.69501     -2988.6245      65.33516      -330.27087      10515.483      21.908354      8.6705994    
     10500   594.3348      -2986.6421      66.298941     -244.23114      10524.151      21.914372      8.6634583    
     11000   627.6239      -2986.3184      70.012391     -739.14059      10531.886      21.919739      8.6570954    
     11500   644.12661     -2990.2472      71.853293     -351.84511      10516.027      21.908732      8.6701507    
     12000   593.3771      -2988.3693      66.192109      1170.3457      10506.769      21.9023        8.6777911    
     12500   606.97166     -2987.5063      67.708602      1931.3585      10503.272      21.89987       8.6806803    
     13000   614.74795     -2985.6337      68.576059      969.67758      10519.327      21.911023      8.6674313    
     13500   615.54935     -2986.7416      68.665457     -2515.2654      10543.733      21.927955      8.6473683    
     14000   576.00446     -2986.0672      64.254164     -4759.6352      10562.491      21.940951      8.6320112    
     14500   587.58936     -2985.8522      65.546477     -5720.2992      10572.192      21.947666      8.6240908    
     15000   606.45744     -2982.6116      67.65124      -3296.6941      10566.551      21.943762      8.6286948    
     15500   618.79324     -2987.3186      69.027317      1020.5066      10514.53       21.907692      8.6713854    
     16000   585.50324     -2986.5282      65.313767      3033.3363      10496.545      21.895194      8.6862429    
     16500   652.37945     -2988.8138      72.77391      -2068.5159      10533.41       21.920796      8.6558432    
     17000   604.34743     -2984.0542      67.415865     -884.45146      10541.095      21.926126      8.6495324    
     17500   577.10081     -2984.7998      64.376464     -723.79988      10534.233      21.921367      8.6551671    
     18000   599.68638     -2988.308       66.895918     -1399.7061      10527.072      21.916399      8.6610546    
     18500   598.07108     -2987.6547      66.715729     -2331.987       10538.766      21.924511      8.651444     
     19000   598.76216     -2984.7237      66.79282      -537.5292       10534.517      21.921564      8.6549337    
     19500   610.09474     -2983.7523      68.056987      1423.1384      10526.065      21.9157        8.661883     
     20000   614.60351     -2989.4483      68.559947      1686.8632      10498.282      21.896402      8.6848057    
Loop time of 27.221 on 1 procs for 20000 steps with 864 atoms

Performance: 63.480 ns/day, 0.378 hours/ns, 734.726 timesteps/s, 634.803 katom-step/s
96.6% CPU use with 1 MPI tasks x 1 OpenMP threads

MPI task timing breakdown:
Section |  min time  |  avg time  |  max time  |%varavg| %total
---------------------------------------------------------------
Pair    | 26.154     | 26.154     | 26.154     |   0.0 | 96.08
Neigh   | 0          | 0          | 0          |   0.0 |  0.00
Comm    | 0.22769    | 0.22769    | 0.22769    |   0.0 |  0.84
Output  | 0.0012974  | 0.0012974  | 0.0012974  |   0.0 |  0.00
Modify  | 0.74005    | 0.74005    | 0.74005    |   0.0 |  2.72
Other   |            | 0.09792    |            |       |  0.36

Nlocal:            864 ave         864 max         864 min
Histogram: 1 0 0 0 0 0 0 0 0 0
Nghost:           2565 ave        2565 max        2565 min
Histogram: 1 0 0 0 0 0 0 0 0 0
Neighs:          57888 ave       57888 max       57888 min
Histogram: 1 0 0 0 0 0 0 0 0 0

Total # of neighbors = 57888
Ave neighs/atom = 67
Neighbor list builds = 0
Dangerous builds = 0
Setting up Verlet run ...
  Unit style    : metal
  Current step  : 0
  Time step     : 0.001
Per MPI rank memory allocation (min/avg/max) = 3.422 | 3.422 | 3.422 Mbytes
   Step          Temp          PotEng         KinEng         Press          Volume           Lx          Density    
         0   614.60351     -2989.4483      68.559947      1686.8632      10498.282      21.896402      8.6848057    
       500   621.25853     -2989.8263      69.302324      3276.8166      10485.054      21.887201      8.6957628    
      1000   615.38322     -2985.8162      68.646925      4215.7774      10491.057      21.891377      8.6907869    
      1500   605.49297     -2986.6432      67.543653      543.67129      10518.035      21.910126      8.6684961    
      2000   623.52373     -2985.2194      69.555011     -4775.2344      10569.309      21.945671      8.6264434    
      2500   569.30699     -2985.8393      63.507052     -5956.7056      10572.267      21.947718      8.6240291    
      3000   607.68516     -2985.9137      67.788194     -3976.5902      10557.112      21.937226      8.6364093    
      3500   609.71498     -2985.9757      68.014624      45.892008      10525.685      21.915436      8.6621957    
      4000   614.24867     -2989.6035      68.520364     -264.91977      10515.954      21.908681      8.6702109    
      4500   600.91257     -2990.5833      67.032702      1440.9566      10494.878      21.894034      8.6876229    
      5000   593.10055     -2986.4084      66.161259      2053.3057      10505.144      21.901171      8.6791329    
      5500   621.9208      -2990.6189      69.376201      445.0828       10504.929      21.901022      8.6793103    
      6000   603.23043     -2990.8838      67.291262      2286.8142      10488.103      21.889322      8.6932346    
      6500   608.8325      -2985.0609      67.916182      2042.5207      10513.825      21.907202      8.671967     
      7000   593.31124     -2989.6962      66.184762     -2970.7526      10534.243      21.921374      8.6551585    
      7500   577.29727     -2986.3784      64.398379     -7502.8007      10582.534      21.95482       8.6156628    
      8000   588.89046     -2984.8844      65.691617     -6659.2663      10583.815      21.955707      8.6146195    
      8500   598.48611     -2990.555       66.762026     -3116.775       10532.005      21.919822      8.6569979    
      9000   574.15845     -2987.9974      64.04824       615.21057      10510.974      21.905222      8.674319     
      9500   592.95054     -2985.7184      66.144525      2423.7523      10507.084      21.902519      8.677531     
     10000   584.79705     -2986.8315      65.234991      3742.5659      10490.478      21.890975      8.6912666    
     10500   577.17711     -2990.4366      64.384976      4135.6763      10470.763      21.877252      8.7076313    
     11000   595.43596     -2986.8498      66.421778      1497.8681      10508.782      21.903699      8.6761282    
     11500   578.12896     -2985.0853      64.491156     -614.896        10531.568      21.919518      8.6573571    
     12000   582.59181     -2988.3052      64.988994     -3348.7769      10541.805      21.926618      8.6489499    
     12500   610.64903     -2983.3314      68.118819     -3619.0117      10566.606      21.9438        8.6286501    
     13000   601.80475     -2984.1903      67.132226     -411.50386      10536.386      21.922861      8.653398     
     13500   579.37028     -2986.6075      64.629627      3457.492       10494.386      21.893692      8.6880305    
     14000   596.63995     -2990.5753      66.556085      6487.4845      10456.903      21.867595      8.7191725    
     14500   620.2211      -2988.9703      69.186597      4246.2817      10480.638      21.884128      8.6994265    
     15000   594.94614     -2984.822       66.367137      1271.6131      10517.524      21.909771      8.6689169    
     15500   593.24274     -2982.9842      66.177121      50.830828      10534.13       21.921296      8.6552509    
     16000   603.62698     -2990.0167      67.335499     -1090.3603      10518.126      21.910189      8.6684207    
     16500   573.73728     -2985.4612      64.001257      41.978122      10525.911      21.915593      8.6620096    
     17000   632.531       -2984.3261      70.559785     -1841.7384      10548.211      21.931059      8.6436977    
     17500   612.95485     -2989.4158      68.376037     -158.07485      10513.93       21.907275      8.6718803    
     18000   581.63186     -2987.2061      64.88191       1518.8056      10508.616      21.903584      8.6762655    
     18500   587.63647     -2986.6299      65.551733      2317.9213      10503.519      21.900042      8.6804755    
     19000   590.2905      -2986.9331      65.847793      650.84122      10515.337      21.908252      8.6707204    
     19500   583.1288      -2985.3011      65.048895      326.2564       10524.09       21.914329      8.6635086    
     20000   603.55624     -2988.6564      67.327607     -1803.8311      10528.047      21.917075      8.6602525    
     20500   574.22497     -2988.4359      64.055659      786.1698       10508.334      21.903388      8.6764982    
     21000   596.05666     -2985.1663      66.491018      3500.1391      10500.736      21.898108      8.6827762    
     21500   599.92914     -2984.8037      66.922999      2227.1416      10510.925      21.905187      8.6743599    
     22000   604.31306     -2986.134       67.412032      1128.8845      10515.545      21.908397      8.6705482    
     22500   592.08246     -2993.1459      66.04769      -1593.3464      10508.376      21.903417      8.6764636    
     23000   599.15336     -2985.7985      66.836459     -4260.9713      10559.298      21.93874       8.6346212    
     23500   599.96202     -2986.8564      66.926666     -5104.8418      10562.665      21.941071      8.6318695    
     24000   586.41138     -2990.0751      65.415072     -2909.772       10530.941      21.919083      8.6578725    
     24500   595.89638     -2986.1499      66.473138      1184.498       10514.675      21.907792      8.6712659    
     25000   615.9379      -2984.7914      68.7088        3986.3847      10499.786      21.897447      8.6835619    
     25500   608.24478     -2987.1467      67.850621      3171.7658      10494.87       21.894029      8.6876297    
     26000   588.19324     -2989.2394      65.613841      100.528        10510.125      21.904632      8.6750202    
     26500   606.2973      -2984.1058      67.633376     -523.26587      10536.624      21.923026      8.6532024    
     27000   583.47766     -2984.2425      65.087812      1484.9505      10518.629      21.910538      8.6680062    
     27500   580.61038     -2987.5331      64.767962      3457.5739      10489.363      21.890199      8.6921909    
     28000   590.14344     -2988.5394      65.831389      3610.9626      10484.343      21.886706      8.6963527    
     28500   581.52954     -2987.7764      64.870496      1767.1295      10501.784      21.898836      8.6819096    
     29000   600.58307     -2985.2287      66.995946      773.91046      10522.333      21.91311       8.6649552    
     29500   578.28221     -2990.812       64.508251     -4740.7499      10544.544      21.928517      8.6467033    
     30000   574.82589     -2987.528       64.122693     -8533.9874      10586.183      21.957344      8.6126927    
Loop time of 42.8963 on 1 procs for 30000 steps with 864 atoms

Performance: 60.425 ns/day, 0.397 hours/ns, 699.360 timesteps/s, 604.247 katom-step/s
96.5% CPU use with 1 MPI tasks x 1 OpenMP threads

MPI task timing breakdown:
Section |  min time  |  avg time  |  max time  |%varavg| %total
---------------------------------------------------------------
Pair    | 41.203     | 41.203     | 41.203     |   0.0 | 96.05
Neigh   | 0.0071806  | 0.0071806  | 0.0071806  |   0.0 |  0.02
Comm    | 0.33982    | 0.33982    | 0.33982    |   0.0 |  0.79
Output  | 0.0013234  | 0.0013234  | 0.0013234  |   0.0 |  0.00
Modify  | 1.1989     | 1.1989     | 1.1989     |   0.0 |  2.79
Other   |            | 0.1459     |            |       |  0.34

Nlocal:            864 ave         864 max         864 min
Histogram: 1 0 0 0 0 0 0 0 0 0
Nghost:           2567 ave        2567 max        2567 min
Histogram: 1 0 0 0 0 0 0 0 0 0
Neighs:          53132 ave       53132 max       53132 min
Histogram: 1 0 0 0 0 0 0 0 0 0

Total # of neighbors = 53132
Ave neighs/atom = 61.49537
Neighbor list builds = 4
Dangerous builds = 0
RESULT T=600 lx=21.957343807015874404 vol=10586.183220524731951 pe_per_atom=-3.4577870741469598492 density=8.6126926717201239825 pressure=-8533.9873824638889346
Total wall time: 0:01:10
