LAMMPS (7 Feb 2024 - Update 1)
OMP_NUM_THREADS environment is not set. Defaulting to 1 thread. (src/comm.cpp:98)
  using 1 OpenMP thread(s) per MPI task
Lattice spacing in x,y,z = 3.615 3.615 3.615
Created orthogonal box = (0 0 0) to (21.69 21.69 21.69)
  1 by 1 by 1 MPI processor grid
Created 864 atoms
  using lattice units in orthogonal box = (0 0 0) to (21.69 21.69 21.69)
  create_atoms CPU = 0.001 seconds
Reading eam potential file Cu_u3.eam with DATE: 2007-06-11
Neighbor list info ...
  update: every = 1 steps, delay = 0 steps, check = yes
  max neighbors/atom: 2000, page size: 100000
  master list distance cutoff = 6.95
  ghost atom cutoff = 6.95
  binsize = 3.475, bins = 7 7 7
  1 neighbor lists, perpetual/occasional/extra = 1 0 0
  (1) pair eam, perpetual
      attributes: half, newton on
      pair build: half/bin/atomonly/newton
      stencil: half/bin/3d
      bin: standard
Setting up cg style minimization ...
  Unit style    : metal
  Current step  : 0
Per MPI rank memory allocation (min/avg/max) = 4.547 | 4.547 | 4.547 Mbytes
   Step          Temp          E_pair         E_mol          TotEng         Press     
         0   0             -3058.56        0             -3058.56       -0.027860375  
         1   0             -3058.56        0             -3058.56       -0.027860375  
Loop time of 0.00387494 on 1 procs for 1 steps with 864 atoms

96.5% CPU use with 1 MPI tasks x 1 OpenMP threads

Minimization stats:
  Stopping criterion = energy tolerance
  Energy initial, next-to-last, final = 
     -3058.56000196872  -3058.56000196872  -3058.56000196872
  Force two-norm initial, final = 2.9749932e-13 2.9467073e-13
  Force max component initial, final = 1.4786783e-14 1.4759027e-14
  Final line search alpha, max atom move = 1 1.4759027e-14
  Iterations, force evaluations = 1 2

MPI task timing breakdown:
Section |  min time  |  avg time  |  max time  |%varavg| %total
---------------------------------------------------------------
Pair    | 0.0037694  | 0.0037694  | 0.0037694  |   0.0 | 97.28
Neigh   | 0          | 0          | 0          |   0.0 |  0.00
Comm    | 2.9282e-05 | 2.9282e-05 | 2.9282e-05 |   0.0 |  0.76
Output  | 0          | 0          | 0          |   0.0 |  0.00
Modify  | 0          | 0          | 0          |   0.0 |  0.00
Other   |            | 7.621e-05  |            |       |  1.97

Nlocal:            864 ave         864 max         864 min
Histogram: 1 0 0 0 0 0 0 0 0 0
Nghost:           2565 ave        2565 max        2565 min
Histogram: 1 0 0 0 0 0 0 0 0 0
Neighs:          57888 ave       57888 max       57888 min
Histogram: 1 0 0 0 0 0 0 0 0 0

Total # of neighbors = 57888
Ave neighs/atom = 67
Neighbor list builds = 0
Dangerous builds = 0
Setting up Verlet run ...
  Unit style    : metal
  Current step  : 0
  Time step     : 0.001
Per MPI rank memory allocation (min/avg/max) = 3.422 | 3.422 | 3.422 Mbytes
   Step          Temp          PotEng         KinEng         Press          Volume           Lx          Density    
         0   700           -3058.56        78.086054      8173.5822      10204.193      21.69          8.9351058    
       500   631.36081     -2985.2406      70.429248     -1933.9412      10549.389      21.931875      8.6427325    
      1000   676.39342     -2974.5228      75.452704     -5097.0955      10621.445      21.981696      8.5841       
      1500   768.74473     -2975.041       85.754632     -1605.2774      10598.847      21.966096      8.6024021    
      2000   698.64014     -2974.3298      77.934359      3056.7831      10555.832      21.936339      8.637457     
      2500   706.74254     -2979.5063      78.838194     -1172.6391      10568.527      21.94513       8.6270816    
      3000   703.21459     -2975.6012      78.444646     -1907.8906      10593.745      21.962571      8.6065447    
      3500   728.36467     -2973.92        81.250175     -150.42385      10585.486      21.956861      8.6132603    
      4000   704.56288     -2972.0983      78.59505       1474.2142      10575.847      21.950195      8.6211101    
      4500   688.60491     -2975.755       76.814914      728.72128      10567.022      21.944088      8.6283099    
      5000   704.21085     -2970.1531      78.555781     -621.74483      10603.591      21.969373      8.5985532    
      5500   733.31088     -2972.7678      81.801933      37.130103      10588.995      21.959288      8.6104058    
      6000   677.2526      -2974.5275      75.548547      5480.1873      10533.909      21.921143      8.6554329    
      6500   684.60601     -2970.7496      76.36883      -84.472999      10592.085      21.961423      8.6078939    
      7000   692.81645     -2972.9824      77.284718     -6066.3946      10637.746      21.992936      8.5709455    
      7500   678.94896     -2980.687       75.737778      2497.8365      10531.918      21.919761      8.6570694    
      8000   714.60095     -2971.8522      79.714811      5853.1201      10543.754      21.92797       8.6473509    
      8500   689.10504     -2975.73        76.870704     -3325.1714      10601.57       21.967977      8.6001926    
      9000   677.24548     -2975.598       75.547753     -2468.1907      10593.108      21.962131      8.6070624    
      9500   713.61732     -2978.9225      79.605086      304.53496      10562.9        21.941235      8.6316769    
     10000   696.52812     -2970.552       77.698761      3141.2525      10567.993      21.94476       8.6275175    
     10500   707.98987     -2979.0733      78.977335     -4677.9877      10600.688      21.967368      8.6009081    
     11000   683.28756     -2974.2126      76.221756     -476.3802       10582.307      21.954664      8.6158473    
     11500   698.24709     -2973.1458      77.890514      5159.9154      10542.901      21.927378      8.6480509    
     12000   706.10425     -2977.4114      78.766991     -902.10187      10577.722      21.951492      8.6195821    
     12500   676.14935     -2978.6153      75.425478     -5009.7576      10599.611      21.966623      8.6017821    
     13000   699.41616     -2975.3891      78.020926     -966.24496      10584.329      21.956062      8.6142018    
     13500   692.29878     -2971.5726      77.226971      7317.5395      10531.275      21.919315      8.6575978    
     14000   703.83621     -2969.3744      78.513989     -280.38334      10600.707      21.967381      8.6008928    
     14500   714.52918     -2977.0236      79.706806     -3776.608       10603.563      21.969353      8.5985764    
     15000   663.85286     -2975.0936      74.053785      1874.9091      10558.322      21.938064      8.6354202    
     15500   691.69108     -2973.0056      77.159181      1179.593       10575.603      21.950026      8.621309     
     16000   689.88015     -2975.396       76.957169      399.46598      10571.878      21.947449      8.6243468    
     16500   691.32576     -2976.1776      77.11843       2954.1916      10548.483      21.931248      8.6434744    
     17000   728.53692     -2976.8367      81.26939      -1451.187       10583.043      21.955172      8.6152484    
     17500   678.37055     -2969.855       75.673256     -2589.7111      10617.571      21.979023      8.5872318    
     18000   723.42435     -2970.9928      80.699075     -1594.2095      10608.242      21.972584      8.5947834    
     18500   734.55297     -2977.8719      81.94049       6517.0208      10516.793      21.909264      8.6695193    
     19000   704.20224     -2970.0036      78.554819     -3205.1262      10625.648      21.984596      8.5807039    
     19500   673.62191     -2972.8112      75.143537     -3346.9185      10614.762      21.977085      8.5895045    
     20000   750.48223     -2974.6575      83.717423      793.41535      10573.938      21.948874      8.6226667    
Loop time of 30.0766 on 1 procs for 20000 steps with 864 atoms

Performance: 57.453 ns/day, 0.418 hours/ns, 664.968 timesteps/s, 574.532 katom-step/s
96.5% CPU use with 1 MPI tasks x 1 OpenMP threads

MPI task timing breakdown:
Section |  min time  |  avg time  |  max time  |%varavg| %total
---------------------------------------------------------------
Pair    | 28.84      | 28.84      | 28.84      |   0.0 | 95.89
Neigh   | 0.025018   | 0.025018   | 0.025018   |   0.0 |  0.08
Comm    | 0.2482     | 0.2482     | 0.2482     |   0.0 |  0.83
Output  | 0.0014178  | 0.0014178  | 0.0014178  |   0.0 |  0.00
Modify  | 0.84823    | 0.84823    | 0.84823    |   0.0 |  2.82
Other   |            | 0.1139     |            |       |  0.38

Nlocal:            864 ave         864 max         864 min
Histogram: 1 0 0 0 0 0 0 0 0 0
Nghost:           2575 ave        2575 max        2575 min
Histogram: 1 0 0 0 0 0 0 0 0 0
Neighs:          52363 ave       52363 max       52363 min
Histogram: 1 0 0 0 0 0 0 0 0 0

Total # of neighbors = 52363
Ave neighs/atom = 60.605324
Neighbor list builds = 13
Dangerous builds = 0
Setting up Verlet run ...
  Unit style    : metal
  Current step  : 0
  Time step     : 0.001
Per MPI rank memory allocation (min/avg/max) = 3.423 | 3.423 | 3.423 Mbytes
   Step          Temp          PotEng         KinEng         Press          Volume           Lx          Density    
         0   750.48223     -2974.6575      83.717423      793.41535      10573.938      21.948874      8.6226667    
       500   710.427       -2974.2589      79.249201      1570.3316      10569.102      21.945527      8.6266124    
      1000   636.25708     -2971.7088      70.975435     -648.51838      10589.437      21.959593      8.6100459    
      1500   702.25083     -2980.7495      78.337137     -2346.4231      10574.252      21.949092      8.6224106    
      2000   691.70874     -2974.4251      77.161151      1704.5665      10564.068      21.942043      8.6307225    
      2500   720.78262     -2972.5885      80.404386      1981.0357      10572.495      21.947876      8.6238436    
      3000   707.44847     -2973.9233      78.916942     -3549.8903      10612.947      21.975832      8.5909729    
      3500   655.47013     -2972.5448      73.118679     -3504.6272      10612.681      21.975648      8.5911887    
      4000   713.42908     -2981.4271      79.584088      8029.8558      10487.533      21.888926      8.6937075    
      4500   682.28244     -2974.2771      76.109633      3820.1201      10548.232      21.931074      8.6436797    
      5000   707.21419     -2971.8076      78.890807     -4770.3091      10630.666      21.988055      8.5766541    
      5500   697.58014     -2973.1855      77.816115     -779.9742       10593.045      21.962087      8.6071139    
      6000   703.51868     -2976.0236      78.478567      2519.4557      10552.523      21.934047      8.6401656    
      6500   700.6195      -2975.023       78.15516       269.209        10578.044      21.951715      8.6193195    
      7000   693.97812     -2969.8532      77.414304     -2903.8878      10622.89       21.982693      8.5829322    
      7500   694.77244     -2971.3225      77.502912      491.36409      10587.951      21.958566      8.6112548    
      8000   697.87989     -2975.4163      77.849552      1543.6015      10564.46       21.942314      8.6304028    
      8500   690.99081     -2975.4749      77.081065     -1491.4761      10586.375      21.957476      8.6125369    
      9000   704.10533     -2971.2739      78.544009     -2491.9738      10610.882      21.974407      8.5926448    
      9500   710.53712     -2977.5295      79.261486      3590.5356      10541.092      21.926124      8.649535     
     10000   698.14278     -2976.1956      77.878878      2806.8308      10549.006      21.93161       8.6430455    
     10500   672.41687     -2971.3535      75.009114     -3245.6039      10615.715      21.977743      8.5887328    
     11000   695.74851     -2974.8124      77.611794     -1870.2129      10591.515      21.96103       8.608357     
     11500   709.46953     -2977.3554      79.142394      5998.3114      10520.707      21.911981      8.6662944    
     12000   743.44636     -2969.0436      82.932561      1056.3819      10597.185      21.964948      8.6037508    
     12500   712.23472     -2978.4639      79.450855     -2789.9723      10587.691      21.958386      8.6114663    
     13000   699.22262     -2976.6161      77.999335     -1708.0809      10583.505      21.955492      8.6148718    
     13500   742.47844     -2973.6228      82.824588     -723.98278      10590.209      21.960127      8.6094189    
     14000   698.77447     -2975.9258      77.949344     -1500.3372      10586.854      21.957808      8.6121467    
     14500   693.68845     -2976.0484      77.38199       2007.6263      10555.566      21.936155      8.6376747    
     15000   704.32931     -2976.4399      78.568995      1357.6925      10560.931      21.939871      8.6332867    
     15500   688.63355     -2972.468       76.818109     -1643.5818      10597.872      21.965422      8.6031932    
     16000   695.30287     -2974.143       77.562081      844.3423       10572.798      21.948086      8.6235964    
     16500   675.81695     -2973.6586      75.388398     -599.73007      10585.38       21.956788      8.6133463    
     17000   698.37186     -2972.1594      77.904433     -2875.3113      10610.771      21.97433       8.5927352    
     17500   712.06682     -2971.6033      79.432126     -154.38852      10594.833      21.963322      8.6056613    
     18000   723.39102     -2974.6679      80.695357      4538.4897      10545.193      21.928967      8.6461714    
     18500   682.36985     -2977.0703      76.119384      1078.8691      10559.726      21.939037      8.6342713    
     19000   681.36919     -2976.4032      76.007759     -7217.2894      10631.248      21.988457      8.5761844    
     19500   714.49805     -2973.3801      79.703332     -798.87583      10589.978      21.959967      8.6096065    
     20000   740.07291     -2974.9554      82.556247      2630.9519      10556.272      21.936644      8.6370971    
     20500   694.48054     -2977.762       77.47035      -1324.9122      10578.122      21.951769      8.6192565    
     21000   674.5182      -2974.4114      75.243521     -556.44845      10584.942      21.956486      8.6137027    
     21500   724.12106     -2975.7306      80.776794     -178.88354      10579.669      21.952839      8.6179957    
     22000   724.16317     -2972.4742      80.781491     -1.6851994      10591.55       21.961054      8.6083286    
     22500   710.97161     -2976.1963      79.309953     -683.6873       10581.021      21.953774      8.6168943    
     23000   677.86166     -2973.4374      75.616489      1017.8491      10574.704      21.949404      8.6220424    
     23500   734.07564     -2973.0486      81.887243     -556.95579      10591.891      21.961289      8.6080514    
     24000   713.82168     -2975.4293      79.627883     -336.29232      10579.332      21.952606      8.6182702    
     24500   683.80924     -2973.3279      76.27995      -2187.7442      10599.968      21.96687       8.6014921    
     25000   728.45254     -2973.9876      81.259978     -2037.343       10598.19       21.965642      8.6029356    
     25500   699.90188     -2974.5823      78.075108      1192.3058      10569.024      21.945474      8.626676     
     26000   659.03941     -2980.4211      73.516838     -411.3398       10555.623      21.936195      8.6376276    
     26500   713.98868     -2972.7248      79.646512     -4103.9881      10623.201      21.982908      8.5826804    
     27000   688.11079     -2972.1627      76.759794      1634.5872      10576.038      21.950328      8.6209542    
     27500   700.03024     -2979.7235      78.089427      5425.8932      10515.804      21.908576      8.6703352    
     28000   682.75948     -2975.5607      76.162848     -2739.3075      10597.028      21.964839      8.6038787    
     28500   659.26743     -2969.4417      73.542274     -7217.4227      10654.824      22.004699      8.5572074    
     29000   686.30065     -2974.2952      76.557871      3224.9681      10554.139      21.935167      8.6388422    
     29500   712.49267     -2975.9395      79.47963       4386.011       10536.549      21.922974      8.653264     
     30000   690.9327      -2974.6922      77.074583     -2791.571       10600.453      21.967205      8.6010985    
Loop time of 42.3715 on 1 procs for 30000 steps with 864 atoms

Performance: 61.173 ns/day, 0.392 hours/ns, 708.024 timesteps/s, 611.733 katom-step/s
96.6% CPU use with 1 MPI tasks x 1 OpenMP threads

MPI task timing breakdown:
Section |  min time  |  avg time  |  max time  |%varavg| %total
---------------------------------------------------------------
Pair    | 40.737     | 40.737     | 40.737     |   0.0 | 96.14
Neigh   | 0.031783   | 0.031783   | 0.031783   |   0.0 |  0.08
Comm    | 0.32982    | 0.32982    | 0.32982    |   0.0 |  0.78
Output  | 0.0013305  | 0.0013305  | 0.0013305  |   0.0 |  0.00
Modify  | 1.1348     | 1.1348     | 1.1348     |   0.0 |  2.68
Other   |            | 0.1363     |            |       |  0.32

Nlocal:            864 ave         864 max         864 min
Histogram: 1 0 0 0 0 0 0 0 0 0
Nghost:           2567 ave        2567 max        2567 min
Histogram: 1 0 0 0 0 0 0 0 0 0
Neighs:          52557 ave       52557 max       52557 min
Histogram: 1 0 0 0 0 0 0 0 0 0

Total # of neighbors = 52557
Ave neighs/atom = 60.829861
Neighbor list builds = 18
Dangerous builds = 0
RESULT T=700 lx=21.967205439503540987 vol=10600.453244780221212 pe_per_atom=-3.4429308151247899339 density=8.6010985133862760676 pressure=-2791.5710262068482734
Total wall time: 0:01:12
