LAMMPS (7 Feb 2024 - Update 1)
OMP_NUM_THREADS environment is not set. Defaulting to 1 thread. (src/comm.cpp:98)
  using 1 OpenMP thread(s) per MPI task
Lattice spacing in x,y,z = 3.615 3.615 3.615
Created orthogonal box = (0 0 0) to (21.69 21.69 21.69)
  1 by 1 by 1 MPI processor grid
Created 864 atoms
  using lattice units in orthogonal box = (0 0 0) to (21.69 21.69 21.69)
  create_atoms CPU = 0.001 seconds
Reading eam potential file Cu_u3.eam with DATE: 2007-06-11
Neighbor list info ...
  update: every = 1 steps, delay = 0 steps, check = yes
  max neighbors/atom: 2000, page size: 100000
  master list distance cutoff = 6.95
  ghost atom cutoff = 6.95
  binsize = 3.475, bins = 7 7 7
  1 neighbor lists, perpetual/occasional/extra = 1 0 0
  (1) pair eam, perpetual
      attributes: half, newton on
      pair build: half/bin/atomonly/newton
      stencil: half/bin/3d
      bin: standard
Setting up cg style minimization ...
  Unit style    : metal
  Current step  : 0
Per MPI rank memory allocation (min/avg/max) = 4.547 | 4.547 | 4.547 Mbytes
   Step          Temp          E_pair         E_mol          TotEng         Press     
         0   0             -3058.56        0             -3058.56       -0.027860375  
         1   0             -3058.56        0             -3058.56       -0.027860375  
Loop time of 0.00522795 on 1 procs for 1 steps with 864 atoms

88.2% CPU use with 1 MPI tasks x 1 OpenMP threads

Minimization stats:
  Stopping criterion = energy tolerance
  Energy initial, next-to-last, final = 
     -3058.56000196872  -3058.56000196872  -3058.56000196872
  Force two-norm initial, final = 2.9749932e-13 2.9467073e-13
  Force max component initial, final = 1.4786783e-14 1.4759027e-14
  Final line search alpha, max atom move = 1 1.4759027e-14
  Iterations, force evaluations = 1 2

MPI task timing breakdown:
Section |  min time  |  avg time  |  max time  |%varavg| %total
---------------------------------------------------------------
Pair    | 0.0049992  | 0.0049992  | 0.0049992  |   0.0 | 95.62
Neigh   | 0          | 0          | 0          |   0.0 |  0.00
Comm    | 4.7175e-05 | 4.7175e-05 | 4.7175e-05 |   0.0 |  0.90
Output  | 0          | 0          | 0          |   0.0 |  0.00
Modify  | 0          | 0          | 0          |   0.0 |  0.00
Other   |            | 0.0001816  |            |       |  3.47

Nlocal:            864 ave         864 max         864 min
Histogram: 1 0 0 0 0 0 0 0 0 0
Nghost:           2565 ave        2565 max        2565 min
Histogram: 1 0 0 0 0 0 0 0 0 0
Neighs:          57888 ave       57888 max       57888 min
Histogram: 1 0 0 0 0 0 0 0 0 0

Total # of neighbors = 57888
Ave neighs/atom = 67
Neighbor list builds = 0
Dangerous builds = 0
Setting up Verlet run ...
  Unit style    : metal
  Current step  : 0
  Time step     : 0.001
Per MPI rank memory allocation (min/avg/max) = 3.422 | 3.422 | 3.422 Mbytes
   Step          Temp          PotEng         KinEng         Press          Volume           Lx          Density    
         0   300           -3058.56        33.465452      3502.9479      10204.193      21.69          8.9351058    
       500   280.31232     -3028.1562      31.269261     -3242.6491      10364.548      21.803027      8.7968664    
      1000   301.16666     -3026.2427      33.595595     -4621.1342      10383.97       21.816637      8.7804131    
      1500   271.45186     -3019.1421      30.280864      4978.6579      10332.913      21.780822      8.8237984    
      2000   312.01124     -3023.4832      34.805324      744.16311      10352.611      21.794654      8.8070091    
      2500   286.74876     -3023.3646      31.987256     -1317.2214      10366.988      21.804737      8.7947961    
      3000   288.20554     -3024.0623      32.149762      1616.1288      10342.149      21.787309      8.8159181    
      3500   297.69717     -3023.6969      33.208567      548.56514      10351.874      21.794136      8.8076362    
      4000   301.88644     -3023.1335      33.675886     -1091.9274      10366.518      21.804408      8.7951944    
      4500   302.57768     -3022.0637      33.752995      1289.3454      10352.502      21.794577      8.807102     
      5000   314.51197     -3024.8765      35.084283      615.14036      10348.753      21.791946      8.8102924    
      5500   302.78703     -3024.1464      33.776348     -2215.3722      10372.855      21.80885       8.7898214    
      6000   300.69861     -3023.0899      33.543382      1631.0538      10345.514      21.789672      8.8130506    
      6500   306.14199     -3023.5335      34.1506        4445.492       10323.458      21.774176      8.8318797    
      7000   300.64608     -3024.1157      33.537522     -4627.7812      10390.472      21.82119       8.7749181    
      7500   284.02495     -3025.7085      31.68341      -491.63654      10352.024      21.794241      8.8075092    
      8000   291.25612     -3024.2544      32.490058      3280.2226      10328.783      21.77792       8.8273264    
      8500   311.81487     -3024.4363      34.783418     -1783.1893      10369.236      21.806314      8.7928889    
      9000   298.7662      -3023.2886      33.32782      -1069.929       10367.253      21.804923      8.794571     
      9500   291.78541     -3022.9351      32.549102      1346.9891      10348.165      21.791533      8.8107929    
     10000   288.64961     -3023.8645      32.199298      908.23007      10347.188      21.790847      8.8116256    
     10500   275.6942      -3023.5943      30.754103     -2963.8789      10377.704      21.812248      8.7857139    
     11000   319.88402     -3023.1017      35.683544      4594.0459      10325.309      21.775478      8.8302965    
     11500   299.90699     -3024.6466      33.455076      3517.0449      10326.185      21.776093      8.8295476    
     12000   299.63597     -3024.0992      33.424844     -3845.129       10385.265      21.817544      8.779318     
     12500   305.51838     -3024.1866      34.081036      1234.7523      10345.472      21.789642      8.813087     
     13000   294.48595     -3023.8941      32.850351      2239.0876      10338.526      21.784765      8.819008     
     13500   282.32691     -3025.654       31.493992     -1435.6941      10359.457      21.799456      8.8011895    
     14000   304.7001      -3023.3614      33.989755     -582.36352      10362.568      21.801638      8.7985473    
     14500   314.16594     -3024.6019      35.045683      2384.0928      10336.207      21.783135      8.8209869    
     15000   310.54476     -3024.8245      34.641735     -3063.8696      10376.222      21.81121       8.7869693    
     15500   298.50097     -3024.8424      33.298233     -482.83743      10355.525      21.796698      8.8045312    
     16000   306.6843      -3023.588       34.211095      1382.7576      10346.315      21.790234      8.8123688    
     16500   308.21792     -3022.5425      34.382173     -102.29563      10362.008      21.801246      8.7990226    
     17000   296.10705     -3023.8222      33.031187     -2641.1175      10376.393      21.811329      8.7868243    
     17500   288.30399     -3023.4242      32.160744      4613.6109      10321.086      21.772508      8.83391      
     18000   308.19349     -3024.1386      34.379447      1244.9958      10345.823      21.789889      8.8127881    
     18500   293.79479     -3023.3495      32.773252     -4596.9128      10392.976      21.822943      8.7728037    
     19000   299.27004     -3025.0035      33.384024      1739.0556      10338.091      21.784459      8.8193789    
     19500   293.72297     -3026.1126      32.76524       361.74708      10344.134      21.788703      8.8142266    
     20000   298.52834     -3024.3298      33.301286     -1639.9763      10367.412      21.805035      8.7944359    
Loop time of 33.3938 on 1 procs for 20000 steps with 864 atoms

Performance: 51.746 ns/day, 0.464 hours/ns, 598.914 timesteps/s, 517.462 katom-step/s
96.4% CPU use with 1 MPI tasks x 1 OpenMP threads

MPI task timing breakdown:
Section |  min time  |  avg time  |  max time  |%varavg| %total
---------------------------------------------------------------
Pair    | 31.933     | 31.933     | 31.933     |   0.0 | 95.63
Neigh   | 0          | 0          | 0          |   0.0 |  0.00
Comm    | 0.2912     | 0.2912     | 0.2912     |   0.0 |  0.87
Output  | 0.0014991  | 0.0014991  | 0.0014991  |   0.0 |  0.00
Modify  | 1.0358     | 1.0358     | 1.0358     |   0.0 |  3.10
Other   |            | 0.1324     |            |       |  0.40

Nlocal:            864 ave         864 max         864 min
Histogram: 1 0 0 0 0 0 0 0 0 0
Nghost:           2565 ave        2565 max        2565 min
Histogram: 1 0 0 0 0 0 0 0 0 0
Neighs:          57888 ave       57888 max       57888 min
Histogram: 1 0 0 0 0 0 0 0 0 0

Total # of neighbors = 57888
Ave neighs/atom = 67
Neighbor list builds = 0
Dangerous builds = 0
Setting up Verlet run ...
  Unit style    : metal
  Current step  : 0
  Time step     : 0.001
Per MPI rank memory allocation (min/avg/max) = 3.422 | 3.422 | 3.422 Mbytes
   Step          Temp          PotEng         KinEng         Press          Volume           Lx          Density    
         0   298.52834     -3024.3298      33.301286     -1639.9763      10367.412      21.805035      8.7944359    
       500   303.80202     -3023.7371      33.889572     -175.28184      10358.918      21.799078      8.8016472    
      1000   312.2971      -3022.8766      34.837211      844.75627      10354.676      21.796103      8.8052528    
      1500   293.07917     -3024.6016      32.693422     -959.11851      10360.063      21.799881      8.8006748    
      2000   286.59889     -3023.4855      31.970537     -30.104484      10356.867      21.797639      8.8033905    
      2500   301.80624     -3023.6591      33.66694       2531.4619      10337.493      21.784039      8.8198891    
      3000   322.80563     -3025.1267      36.009454     -1982.0101      10368.462      21.805771      8.7935454    
      3500   298.4978      -3023.8341      33.297879     -3140.1014      10380.865      21.814463      8.7830387    
      4000   304.04402     -3026.2453      33.916568      1632.8405      10335.211      21.782436      8.8218366    
      4500   293.51113     -3024.1861      32.741609      1982.1633      10339.355      21.785347      8.8183011    
      5000   295.11081     -3023.1219      32.920055     -4213.8215      10390.547      21.821242      8.7748548    
      5500   301.69764     -3025.2586      33.654826      643.50378      10346.055      21.790052      8.8125901    
      6000   300.7613      -3023.2621      33.550375      2273.3178      10339.575      21.785502      8.8181132    
      6500   303.12866     -3022.8686      33.814458     -2284.9556      10376.852      21.811651      8.7864356    
      7000   294.0123      -3023.2883      32.797515      767.91392      10351.582      21.793931      8.8078852    
      7500   297.60617     -3023.9638      33.198416      628.96111      10350.773      21.793363      8.8085733    
      8000   282.16302     -3023.2566      31.475709     -620.8103       10362.686      21.801721      8.7984466    
      8500   295.46369     -3022.3979      32.95942       992.44595      10353.702      21.795419      8.8060813    
      9000   307.45008     -3022.6939      34.296519      1146.3158      10352.203      21.794367      8.8073564    
      9500   304.41528     -3024.6202      33.957983     -3729.5903      10382.329      21.815488      8.7818005    
     10000   299.97604     -3024.7192      33.462779      701.8338       10346.664      21.790479      8.8120717    
     10500   292.56255     -3022.749       32.635793      4709.9603      10321.992      21.773145      8.8331347    
     11000   312.36818     -3023.2473      34.845141     -3352.8844      10384.947      21.817321      8.7795868    
     11500   313.62697     -3024.7593      34.985561     -1716.2472      10367.442      21.805056      8.794411     
     12000   297.52958     -3024.8527      33.189873      2912.9242      10330.192      21.77891       8.8261224    
     12500   294.07574     -3023.6081      32.804592     -1053.1991      10364.128      21.802732      8.7972231    
     13000   300.66201     -3022.9084      33.5393       -1424.3851      10370.404      21.807133      8.7918985    
     13500   299.16778     -3023.9532      33.372617      1910.0147      10340.367      21.786058      8.8174374    
     14000   284.21033     -3025.1652      31.70409       82.628526      10349.007      21.792124      8.8100768    
     14500   319.24631     -3026.8935      35.612406     -1868.2051      10360.473      21.800169      8.8003262    
     15000   293.26916     -3022.8709      32.714616      86.63793       10359.043      21.799166      8.8015412    
     15500   288.00047     -3023.7243      32.126886      868.55236      10348.99       21.792112      8.8100912    
     16000   289.58365     -3024.7548      32.303492      587.34265      10346.406      21.790298      8.8122913    
     16500   296.45947     -3023.3935      33.0705       -230.98953      10358.304      21.798648      8.8021689    
     17000   297.2252      -3024.1883      33.155919     -55.830399      10354.407      21.795914      8.8054819    
     17500   287.00692     -3025.2575      32.016054      321.16521      10347.541      21.791095      8.8113245    
     18000   302.26013     -3025.4239      33.717573     -791.15014      10357.773      21.798275      8.8026204    
     18500   293.3232      -3024.6626      32.720644      219.18105      10350.694      21.793308      8.8086408    
     19000   300.55515     -3023.6354      33.527379     -122.26027      10357.719      21.798237      8.8026663    
     19500   302.21931     -3023.9046      33.713019      394.12484      10353.315      21.795148      8.8064102    
     20000   290.02989     -3023.8383      32.353271     -192.50802      10356.694      21.797518      8.8035373    
     20500   288.33702     -3023.9556      32.164429      6.5266646      10354.541      21.796007      8.8053682    
     21000   290.1322      -3024.4272      32.364684      792.39883      10346.436      21.790319      8.8122659    
     21500   306.20321     -3024.1202      34.157429     -1782.4213      10369.918      21.806792      8.792311     
     22000   306.21972     -3023.0499      34.159271     -649.50382      10364.792      21.803198      8.7966593    
     22500   307.47283     -3025.3257      34.299057      2640.7123      10331.192      21.779612      8.8252682    
     23000   285.52311     -3023.9081      31.850532     -913.44642      10362.548      21.801624      8.7985643    
     23500   301.12931     -3023.8639      33.591428     -3225.049       10381.153      21.814664      8.7827951    
     24000   309.04189     -3025.8752      34.474088      3709.2607      10321.344      21.77269       8.8336889    
     24500   303.35867     -3023.9658      33.840116     -70.618484      10356.869      21.797641      8.8033885    
     25000   308.2315      -3023.8729      34.383688     -3151.7457      10382.054      21.815295      8.7820334    
     25500   297.12733     -3025.0444      33.145001      928.25677      10343.93       21.78856       8.8144008    
     26000   293.65669     -3024.3906      32.757846      1338.6345      10343.456      21.788227      8.8148042    
     26500   301.98782     -3024.0288      33.687196     -1160.7936      10365.014      21.803354      8.7964707    
     27000   293.45197     -3023.7352      32.735009      390.91694      10353.419      21.795221      8.8063217    
     27500   305.18159     -3025.569       34.043465      470.36463      10346.567      21.790411      8.8121538    
     28000   294.05284     -3023.3889      32.802037     -1149.2276      10366.89       21.804669      8.7948792    
     28500   291.42673     -3022.1379      32.50909       694.30796      10356.297      21.79724       8.8038745    
     29000   294.90468     -3024.0524      32.897061      3636.3038      10326.81       21.776533      8.8290129    
     29500   291.83539     -3024.9787      32.554677     -3949.4214      10381.738      21.815074      8.7823007    
     30000   305.53409     -3024.8503      34.082787     -2651.2494      10373.547      21.809335      8.7892353    
Loop time of 57.6353 on 1 procs for 30000 steps with 864 atoms

Performance: 44.972 ns/day, 0.534 hours/ns, 520.515 timesteps/s, 449.725 katom-step/s
96.6% CPU use with 1 MPI tasks x 1 OpenMP threads

MPI task timing breakdown:
Section |  min time  |  avg time  |  max time  |%varavg| %total
---------------------------------------------------------------
Pair    | 55.099     | 55.099     | 55.099     |   0.0 | 95.60
Neigh   | 0          | 0          | 0          |   0.0 |  0.00
Comm    | 0.4853     | 0.4853     | 0.4853     |   0.0 |  0.84
Output  | 0.0016727  | 0.0016727  | 0.0016727  |   0.0 |  0.00
Modify  | 1.8261     | 1.8261     | 1.8261     |   0.0 |  3.17
Other   |            | 0.2229     |            |       |  0.39

Nlocal:            864 ave         864 max         864 min
Histogram: 1 0 0 0 0 0 0 0 0 0
Nghost:           2565 ave        2565 max        2565 min
Histogram: 1 0 0 0 0 0 0 0 0 0
Neighs:          55991 ave       55991 max       55991 min
Histogram: 1 0 0 0 0 0 0 0 0 0

Total # of neighbors = 55991
Ave neighs/atom = 64.804398
Neighbor list builds = 0
Dangerous builds = 0
RESULT T=300 lx=21.809334945752475221 vol=10373.546718706955289 pe_per_atom=-3.5009841056353301347 density=8.7892352651653897766 pressure=-2651.249369672940702
Total wall time: 0:01:31
