LAMMPS (7 Feb 2024 - Update 1)
OMP_NUM_THREADS environment is not set. Defaulting to 1 thread. (src/comm.cpp:98)
  using 1 OpenMP thread(s) per MPI task
Lattice spacing in x,y,z = 3.615 3.615 3.615
Created orthogonal box = (0 0 0) to (21.69 21.69 21.69)
  1 by 1 by 1 MPI processor grid
Created 864 atoms
  using lattice units in orthogonal box = (0 0 0) to (21.69 21.69 21.69)
  create_atoms CPU = 0.001 seconds
Reading eam potential file Cu_u3.eam with DATE: 2007-06-11
Neighbor list info ...
  update: every = 1 steps, delay = 0 steps, check = yes
  max neighbors/atom: 2000, page size: 100000
  master list distance cutoff = 6.95
  ghost atom cutoff = 6.95
  binsize = 3.475, bins = 7 7 7
  1 neighbor lists, perpetual/occasional/extra = 1 0 0
  (1) pair eam, perpetual
      attributes: half, newton on
      pair build: half/bin/atomonly/newton
      stencil: half/bin/3d
      bin: standard
Setting up cg style minimization ...
  Unit style    : metal
  Current step  : 0
Per MPI rank memory allocation (min/avg/max) = 4.547 | 4.547 | 4.547 Mbytes
   Step          Temp          E_pair         E_mol          TotEng         Press     
         0   0             -3058.56        0             -3058.56       -0.027860375  
         1   0             -3058.56        0             -3058.56       -0.027860375  
Loop time of 0.00394338 on 1 procs for 1 steps with 864 atoms

96.7% CPU use with 1 MPI tasks x 1 OpenMP threads

Minimization stats:
  Stopping criterion = energy tolerance
  Energy initial, next-to-last, final = 
     -3058.56000196872  -3058.56000196872  -3058.56000196872
  Force two-norm initial, final = 2.9749932e-13 2.9467073e-13
  Force max component initial, final = 1.4786783e-14 1.4759027e-14
  Final line search alpha, max atom move = 1 1.4759027e-14
  Iterations, force evaluations = 1 2

MPI task timing breakdown:
Section |  min time  |  avg time  |  max time  |%varavg| %total
---------------------------------------------------------------
Pair    | 0.0038282  | 0.0038282  | 0.0038282  |   0.0 | 97.08
Neigh   | 0          | 0          | 0          |   0.0 |  0.00
Comm    | 3.4913e-05 | 3.4913e-05 | 3.4913e-05 |   0.0 |  0.89
Output  | 0          | 0          | 0          |   0.0 |  0.00
Modify  | 0          | 0          | 0          |   0.0 |  0.00
Other   |            | 8.025e-05  |            |       |  2.04

Nlocal:            864 ave         864 max         864 min
Histogram: 1 0 0 0 0 0 0 0 0 0
Nghost:           2565 ave        2565 max        2565 min
Histogram: 1 0 0 0 0 0 0 0 0 0
Neighs:          57888 ave       57888 max       57888 min
Histogram: 1 0 0 0 0 0 0 0 0 0

Total # of neighbors = 57888
Ave neighs/atom = 67
Neighbor list builds = 0
Dangerous builds = 0
Setting up Verlet run ...
  Unit style    : metal
  Current step  : 0
  Time step     : 0.001
Per MPI rank memory allocation (min/avg/max) = 3.422 | 3.422 | 3.422 Mbytes
   Step          Temp          PotEng         KinEng         Press          Volume           Lx          Density    
         0   100           -3058.56        11.155151      1167.6307      10204.193      21.69          8.9351058    
       500   96.956378     -3048.7639      10.81563      -3156.482       10271.981      21.737924      8.8761404    
      1000   106.99706     -3048.8209      11.935683      547.46081      10244.389      21.718443      8.9000468    
      1500   105.66275     -3047.3773      11.786839     -407.23176      10256.682      21.727126      8.8893803    
      2000   102.9205      -3046.9792      11.480937     -519.25876      10259.361      21.729018      8.8870589    
      2500   101.6232      -3047.5372      11.336221      2801.1185      10232.125      21.709772      8.9107147    
      3000   99.829314     -3047.7181      11.13611      -3745.2257      10279.874      21.743491      8.8693249    
      3500   101.76331     -3047.4619      11.351851     -949.1884       10260.78       21.73002       8.8858296    
      4000   104.40979     -3047.6942      11.647069      1047.5129      10244.933      21.718827      8.8995747    
      4500   101.06158     -3047.7585      11.273571     -277.07947      10253.827      21.72511       8.8918552    
      5000   96.305004     -3047.7417      10.742968      722.24799      10246.246      21.719755      8.8984338    
      5500   100.64603     -3047.5087      11.227216     -1364.7516      10263.243      21.731758      8.8836973    
      6000   100.61722     -3047.5475      11.224002     -647.59858      10257.604      21.727778      8.8885805    
      6500   103.48669     -3047.6092      11.544096      2741.0173      10232.526      21.710057      8.9103647    
      7000   103.49007     -3047.3282      11.544473     -1273.0545      10263.268      21.731776      8.8836753    
      7500   103.81384     -3047.8191      11.58059      -1603.3671      10264.104      21.732366      8.8829521    
      8000   98.006656     -3047.5951      10.93279       1432.9596      10241.728      21.716563      8.9023591    
      8500   96.860788     -3046.8034      10.804967      347.52845      10252.586      21.724234      8.8929314    
      9000   97.689773     -3046.9195      10.897441     -976.0621       10261.634      21.730623      8.8850901    
      9500   102.27656     -3048.0364      11.409104      395.07328      10248.142      21.721095      8.8967874    
     10000   101.97195     -3048.2181      11.375124      254.17886      10248.467      21.721325      8.8965053    
     10500   99.781145     -3047.4672      11.130737     -2154.5067      10269.139      21.735919      8.878597     
     11000   99.257053     -3047.0845      11.072274      369.50257      10251.337      21.723352      8.8940148    
     11500   98.868807     -3046.8727      11.028964      1918.3911      10240.657      21.715805      8.9032907    
     12000   95.119464     -3047.8611      10.610719     -1928.2131      10265.313      21.733219      8.8819058    
     12500   95.761647     -3047.161       10.682356     -263.69554      10255.423      21.726238      8.890471     
     13000   98.823244     -3046.9061      11.023882      530.95842      10250.588      21.722823      8.8946646    
     13500   98.830504     -3047.1476      11.024691     -767.7879       10259.458      21.729086      8.8869748    
     14000   102.67407     -3047.4325      11.453447     -453.71278      10256.596      21.727066      8.8894543    
     14500   97.761912     -3047.2856      10.905488     -165.24341      10254.499      21.725585      8.8912721    
     15000   98.577918     -3047.1952      10.996515      912.27264      10246.873      21.720198      8.8978898    
     15500   104.16641     -3046.9761      11.61992      -858.71129      10261.557      21.730568      8.8851569    
     16000   104.73424     -3047.4288      11.683262     -4247.0502      10285.335      21.74734       8.8646153    
     16500   98.438295     -3047.3268      10.98094       908.59225      10246.605      21.720009      8.8981223    
     17000   98.435746     -3047.2168      10.980656      1487.5496      10242.476      21.717091      8.9017096    
     17500   99.122035     -3046.8716      11.057212     -196.89269      10256.5        21.726998      8.889538     
     18000   104.73692     -3047.1538      11.683561     -1187.5097      10263.36       21.731841      8.883596     
     18500   97.545825     -3046.9948      10.881384      786.60392      10248.571      21.721398      8.8964155    
     19000   100.89411     -3047.4031      11.25489       1504.638       10242.065      21.7168        8.9020668    
     19500   103.70388     -3046.8588      11.568324     -3064.4582      10278.514      21.742532      8.8704981    
     20000   104.02904     -3047.2402      11.604596     -831.49829      10260.425      21.729769      8.8861369    
Loop time of 34.5667 on 1 procs for 20000 steps with 864 atoms

Performance: 49.990 ns/day, 0.480 hours/ns, 578.592 timesteps/s, 499.904 katom-step/s
96.5% CPU use with 1 MPI tasks x 1 OpenMP threads

MPI task timing breakdown:
Section |  min time  |  avg time  |  max time  |%varavg| %total
---------------------------------------------------------------
Pair    | 32.987     | 32.987     | 32.987     |   0.0 | 95.43
Neigh   | 0          | 0          | 0          |   0.0 |  0.00
Comm    | 0.32497    | 0.32497    | 0.32497    |   0.0 |  0.94
Output  | 0.0015396  | 0.0015396  | 0.0015396  |   0.0 |  0.00
Modify  | 1.1037     | 1.1037     | 1.1037     |   0.0 |  3.19
Other   |            | 0.1498     |            |       |  0.43

Nlocal:            864 ave         864 max         864 min
Histogram: 1 0 0 0 0 0 0 0 0 0
Nghost:           2565 ave        2565 max        2565 min
Histogram: 1 0 0 0 0 0 0 0 0 0
Neighs:          57888 ave       57888 max       57888 min
Histogram: 1 0 0 0 0 0 0 0 0 0

Total # of neighbors = 57888
Ave neighs/atom = 67
Neighbor list builds = 0
Dangerous builds = 0
Setting up Verlet run ...
  Unit style    : metal
  Current step  : 0
  Time step     : 0.001
Per MPI rank memory allocation (min/avg/max) = 3.422 | 3.422 | 3.422 Mbytes
   Step          Temp          PotEng         KinEng         Press          Volume           Lx          Density    
         0   104.02904     -3047.2402      11.604596     -831.49829      10260.425      21.729769      8.8861369    
       500   99.497873     -3047.057       11.099137      1174.7019      10245.529      21.719249      8.8990562    
      1000   96.028847     -3047.4625      10.712162      542.26997      10248.454      21.721315      8.8965171    
      1500   97.847465     -3047.5301      10.915032     -411.63181      10255.69       21.726426      8.8902399    
      2000   99.32169      -3046.6691      11.079484     -1033.129       10263.43       21.73189       8.8835356    
      2500   102.70323     -3047.457       11.4567        2240.2771      10236.576      21.71292       8.90684      
      3000   100.78753     -3047.9143      11.243001     -377.86707      10254.427      21.725534      8.8913351    
      3500   98.553724     -3047.913       10.993816     -3006.4116      10273.905      21.739281      8.8744779    
      4000   100.47415     -3047.0213      11.208043      1128.9997      10246.379      21.719849      8.8983186    
      4500   97.722223     -3046.9291      10.901061      727.43544      10249.151      21.721808      8.8959114    
      5000   99.753662     -3047.2388      11.127671      277.91221      10251.578      21.723522      8.893806     
      5500   101.36583     -3047.6262      11.307511     -521.95951      10256.495      21.726995      8.8895417    
      6000   100.20893     -3047.6097      11.178456     -1628.8015      10264.421      21.73259       8.8826778    
      6500   104.34474     -3047.5841      11.639812      928.7006       10246.096      21.719649      8.8985638    
      7000   104.39382     -3046.949       11.645288     -381.70055      10257.952      21.728023      8.8882794    
      7500   100.05741     -3047.021       11.161554     -1016.3706      10262.349      21.731128      8.8844709    
      8000   98.343976     -3047.5517      10.970419      944.32305      10245.368      21.719135      8.8991964    
      8500   101.87253     -3047.6088      11.364034      1274.7145      10243.03       21.717483      8.9012274    
      9000   101.41968     -3047.3653      11.313518     -2785.4008      10274.36       21.739603      8.8740845    
      9500   97.576371     -3047.5824      10.884791     -669.60943      10257.471      21.727684      8.8886963    
     10000   98.27798      -3047.2357      10.963057      2017.3479      10238.789      21.714485      8.9049145    
     10500   103.70715     -3046.911       11.568688     -980.05934      10262.854      21.731484      8.8840341    
     11000   101.91895     -3047.577       11.369212     -312.25607      10255.461      21.726264      8.8904383    
     11500   97.735111     -3047.1663      10.902499     -122.09746      10254.812      21.725807      8.8910005    
     12000   95.730847     -3047.3459      10.67892       254.47126      10251.04       21.723142      8.8942727    
     12500   100.14388     -3047.3591      11.1712        328.53252      10250.787      21.722963      8.8944919    
     13000   103.29486     -3046.3783      11.522697     -576.49323      10261.413      21.730467      8.8852814    
     13500   102.74059     -3047.5747      11.460868      259.9143       10250.765      21.722948      8.894511     
     14000   98.847631     -3047.4806      11.026602     -472.2408       10256.367      21.726905      8.8896525    
     14500   98.605279     -3047.8367      10.999567     -881.64655      10258.453      21.728377      8.8878451    
     15000   98.275206     -3047.573       10.962747     -469.61357      10256.014      21.726655      8.889959     
     15500   98.68023      -3046.8149      11.007928      685.05391      10250.357      21.72266       8.8948648    
     16000   99.104097     -3047.4072      11.055211      2442.9811      10235.148      21.711911      8.9080824    
     16500   95.977006     -3046.6465      10.706379     -1361.7648      10265.798      21.733562      8.8814862    
     17000   100.96969     -3046.8513      11.263321     -1715.6321      10268.095      21.735183      8.8794989    
     17500   96.688796     -3047.5564      10.785781      1752.9185      10239.221      21.71479       8.9045392    
     18000   98.954773     -3047.6876      11.038554      1105.4406      10243.805      21.71803       8.9005541    
     18500   104.2596      -3047.3461      11.630315     -1248.9637      10263.318      21.731811      8.8836323    
     19000   102.25873     -3047.4298      11.407115     -2503.9977      10271.791      21.73779       8.876304     
     19500   99.490183     -3047.6476      11.09828       2921.5512      10230.484      21.708612      8.9121438    
     20000   95.713874     -3046.9064      10.677027      155.9029       10253.529      21.7249        8.8921132    
     20500   101.66225     -3046.8323      11.340577     -1313.7493      10265.333      21.733233      8.8818888    
     21000   107.08754     -3047.2023      11.945776      506.25118      10250.546      21.722793      8.8947011    
     21500   96.210025     -3047.2345      10.732373      403.34423      10250.581      21.722818      8.8946709    
     22000   98.851683     -3047.4459      11.027054      412.92572      10249.917      21.722349      8.8952473    
     22500   100.59298     -3046.7131      11.221298     -1504.3104      10267.058      21.734451      8.8803963    
     23000   99.279749     -3046.7093      11.074805      525.77238      10251.981      21.723807      8.893456     
     23500   98.251645     -3047.2799      10.960119      1561.6316      10242.049      21.716789      8.9020801    
     24000   96.262903     -3047.0905      10.738272     -1438.7745      10264.722      21.732802      8.8824173    
     24500   100.55888     -3047.1175      11.217495     -1780.9876      10267.784      21.734963      8.8797679    
     25000   103.07979     -3046.9866      11.498706      1740.8898      10241.992      21.716749      8.90213      
     25500   102.11777     -3046.9605      11.391391      1526.8161      10243.838      21.718053      8.9005258    
     26000   96.644587     -3047.1101      10.780849     -2309.3335      10271.302      21.737445      8.8767269    
     26500   97.019402     -3047.0932      10.82266      -632.04455      10258.883      21.728681      8.8874727    
     27000   103.83668     -3047.241       11.583138      1771.7451      10241.069      21.716096      8.9029323    
     27500   103.20576     -3047.2078      11.512758     -609.85482      10258.841      21.728651      8.8875087    
     28000   101.0033      -3047.3985      11.267071     -290.82644      10255.516      21.726303      8.8903909    
     28500   96.938177     -3047.2979      10.8136        440.97884      10250.236      21.722574      8.8949698    
     29000   103.24071     -3047.2047      11.516657      799.26287      10248.305      21.72121       8.8966462    
     29500   96.631452     -3047.3619      10.779384      50.5521        10252.979      21.724512      8.8925904    
     30000   94.112712     -3047.2079      10.498415     -1721.5809      10266.419      21.734         8.880949     
Loop time of 51.1136 on 1 procs for 30000 steps with 864 atoms

Performance: 50.711 ns/day, 0.473 hours/ns, 586.928 timesteps/s, 507.106 katom-step/s
96.5% CPU use with 1 MPI tasks x 1 OpenMP threads

MPI task timing breakdown:
Section |  min time  |  avg time  |  max time  |%varavg| %total
---------------------------------------------------------------
Pair    | 48.921     | 48.921     | 48.921     |   0.0 | 95.71
Neigh   | 0          | 0          | 0          |   0.0 |  0.00
Comm    | 0.42283    | 0.42283    | 0.42283    |   0.0 |  0.83
Output  | 0.0014664  | 0.0014664  | 0.0014664  |   0.0 |  0.00
Modify  | 1.5724     | 1.5724     | 1.5724     |   0.0 |  3.08
Other   |            | 0.1963     |            |       |  0.38

Nlocal:            864 ave         864 max         864 min
Histogram: 1 0 0 0 0 0 0 0 0 0
Nghost:           2565 ave        2565 max        2565 min
Histogram: 1 0 0 0 0 0 0 0 0 0
Neighs:          57814 ave       57814 max       57814 min
Histogram: 1 0 0 0 0 0 0 0 0 0

Total # of neighbors = 57814
Ave neighs/atom = 66.914352
Neighbor list builds = 0
Dangerous builds = 0
RESULT T=100 lx=21.733999854683155206 vol=10266.41886897546101 pe_per_atom=-3.5268610427797999485 density=8.8809490250224687458 pressure=-1721.5809438695878271
Total wall time: 0:01:25
