LAMMPS (7 Feb 2024 - Update 1)
OMP_NUM_THREADS environment is not set. Defaulting to 1 thread. (src/comm.cpp:98)
  using 1 OpenMP thread(s) per MPI task
Lattice spacing in x,y,z = 3.615 3.615 3.615
Created orthogonal box = (0 0 0) to (21.69 21.69 21.69)
  1 by 1 by 1 MPI processor grid
Created 864 atoms
  using lattice units in orthogonal box = (0 0 0) to (21.69 21.69 21.69)
  create_atoms CPU = 0.001 seconds
Reading eam potential file Cu_u3.eam with DATE: 2007-06-11
Neighbor list info ...
  update: every = 1 steps, delay = 0 steps, check = yes
  max neighbors/atom: 2000, page size: 100000
  master list distance cutoff = 6.95
  ghost atom cutoff = 6.95
  binsize = 3.475, bins = 7 7 7
  1 neighbor lists, perpetual/occasional/extra = 1 0 0
  (1) pair eam, perpetual
      attributes: half, newton on
      pair build: half/bin/atomonly/newton
      stencil: half/bin/3d
      bin: standard
Setting up cg style minimization ...
  Unit style    : metal
  Current step  : 0
Per MPI rank memory allocation (min/avg/max) = 4.547 | 4.547 | 4.547 Mbytes
   Step          Temp          E_pair         E_mol          TotEng         Press     
         0   0             -3058.56        0             -3058.56       -0.027860375  
         1   0             -3058.56        0             -3058.56       -0.027860375  
Loop time of 0.00405216 on 1 procs for 1 steps with 864 atoms

96.4% CPU use with 1 MPI tasks x 1 OpenMP threads

Minimization stats:
  Stopping criterion = energy tolerance
  Energy initial, next-to-last, final = 
     -3058.56000196872  -3058.56000196872  -3058.56000196872
  Force two-norm initial, final = 2.9749932e-13 2.9467073e-13
  Force max component initial, final = 1.4786783e-14 1.4759027e-14
  Final line search alpha, max atom move = 1 1.4759027e-14
  Iterations, force evaluations = 1 2

MPI task timing breakdown:
Section |  min time  |  avg time  |  max time  |%varavg| %total
---------------------------------------------------------------
Pair    | 0.0039434  | 0.0039434  | 0.0039434  |   0.0 | 97.32
Neigh   | 0          | 0          | 0          |   0.0 |  0.00
Comm    | 3.1377e-05 | 3.1377e-05 | 3.1377e-05 |   0.0 |  0.77
Output  | 0          | 0          | 0          |   0.0 |  0.00
Modify  | 0          | 0          | 0          |   0.0 |  0.00
Other   |            | 7.742e-05  |            |       |  1.91

Nlocal:            864 ave         864 max         864 min
Histogram: 1 0 0 0 0 0 0 0 0 0
Nghost:           2565 ave        2565 max        2565 min
Histogram: 1 0 0 0 0 0 0 0 0 0
Neighs:          57888 ave       57888 max       57888 min
Histogram: 1 0 0 0 0 0 0 0 0 0

Total # of neighbors = 57888
Ave neighs/atom = 67
Neighbor list builds = 0
Dangerous builds = 0
Setting up Verlet run ...
  Unit style    : metal
  Current step  : 0
  Time step     : 0.001
Per MPI rank memory allocation (min/avg/max) = 3.422 | 3.422 | 3.422 Mbytes
   Step          Temp          PotEng         KinEng         Press          Volume           Lx          Density    
         0   500           -3058.56        55.775753      5838.2651      10204.193      21.69          8.9351058    
       500   465.67607     -3007.6368      51.946867      7588.2058      10373.263      21.809136      8.7894753    
      1000   495.17782     -3002.3406      55.237832      4433.2098      10420.443      21.84215       8.74968      
      1500   507.99033     -2996.9435      56.667086      1536.1526      10463.144      21.871944      8.7139722    
      2000   510.30684     -2998.7554      56.925496     -790.26867      10476.128      21.880988      8.7031723    
      2500   491.7125      -3001.2577      54.851269     -1653.404       10469.991      21.876715      8.7082733    
      3000   490.75116     -3000.9657      54.744031     -2663.298       10479.3        21.883196      8.7005377    
      3500   503.14143     -2998.7422      56.126183     -2619.0464      10488.723      21.889753      8.6927211    
      4000   520.23823     -2998.932       58.033358     -3240.4481      10494.713      21.89392       8.6877592    
      4500   491.48799     -2999.7073      54.826225     -1495.8275      10473.929      21.879457      8.7049992    
      5000   516.34893     -2999.6381      57.5995       -45.072398      10465.468      21.873564      8.7120367    
      5500   528.447       -2999.1565      58.949058     -647.28736      10474.441      21.879814      8.7045732    
      6000   491.32297     -2998.9044      54.807817      1309.8227      10456.283      21.867163      8.7196894    
      6500   497.43995     -3002.7097      55.490176      2312.434       10434.318      21.85184       8.7380456    
      7000   500.34454     -3000.9978      55.814186      3703.1359      10430.531      21.849197      8.7412173    
      7500   507.30565     -2999.7349      56.590708      4126.7748      10431.653      21.84998       8.7402779    
      8000   508.43476     -3000.3947      56.716663      3688.0964      10433.436      21.851225      8.7387837    
      8500   489.15445     -2999.5309      54.565915      2967.4042      10439.652      21.855564      8.7335805    
      9000   498.23455     -2997.2855      55.578814      1928.5135      10458.598      21.868776      8.7177599    
      9500   495.46761     -2997.626       55.270158     -514.00598      10473.068      21.878858      8.7057145    
     10000   495.85997     -3000.1344      55.313926     -1298.995       10471.17       21.877536      8.7072925    
     10500   502.84772     -3000.7438      56.09342      -1590.9267      10472.825      21.878689      8.7059165    
     11000   493.3308      -2999.055       55.031794     -926.97819      10473.621      21.879243      8.7052547    
     11500   498.18743     -2999.4334      55.573557     -1355.215       10477.099      21.881664      8.702365     
     12000   476.8045      -3001.9148      53.18826      -22.367074      10456.489      21.867307      8.7195177    
     12500   501.49463     -3000.4844      55.942481     -676.39014      10466.322      21.874159      8.7113259    
     13000   513.8356      -3000.0035      57.319135      928.77252      10458.843      21.868948      8.7175551    
     13500   517.83159     -3000.1624      57.764893      1189.3549      10454.57       21.865969      8.7211184    
     14000   500.88457     -3001.7039      55.874428      1809.1022      10442.21       21.857348      8.7314414    
     14500   504.77325     -3000.5235      56.308216      2424.2827      10439.738      21.855623      8.7335089    
     15000   506.00107     -2998.7747      56.445181      3513.1288      10439.246      21.85528       8.7339205    
     15500   500.06023     -3000.8821      55.782472      2513.8538      10438.747      21.854932      8.734338     
     16000   479.48445     -2998.1244      53.487212      1821.3646      10453.813      21.865441      8.72175      
     16500   522.2446      -2999.0938      58.257171     -1908.3657      10482.711      21.88557       8.6977067    
     17000   497.44404     -2999.3294      55.490631     -2274.8761      10485.156      21.887272      8.6956783    
     17500   466.64842     -3001.2206      52.055334     -2599.0389      10475.407      21.880486      8.7037712    
     18000   496.89283     -3000.6394      55.429143     -6003.7345      10508.059      21.903197      8.6767254    
     18500   492.54638     -2999.5375      54.94429      -6085.9132      10511.482      21.905574      8.6739001    
     19000   489.23149     -3001.3434      54.574509     -5698.8732      10502.792      21.899536      8.6810768    
     19500   520.19853     -3000.9813      58.028929     -2477.7757      10481.213      21.884528      8.6989491    
     20000   527.01558     -2998.9982      58.789381     -322.56062      10473.151      21.878915      8.7056458    
Loop time of 28.1084 on 1 procs for 20000 steps with 864 atoms

Performance: 61.476 ns/day, 0.390 hours/ns, 711.531 timesteps/s, 614.763 katom-step/s
96.6% CPU use with 1 MPI tasks x 1 OpenMP threads

MPI task timing breakdown:
Section |  min time  |  avg time  |  max time  |%varavg| %total
---------------------------------------------------------------
Pair    | 26.926     | 26.926     | 26.926     |   0.0 | 95.79
Neigh   | 0          | 0          | 0          |   0.0 |  0.00
Comm    | 0.24152    | 0.24152    | 0.24152    |   0.0 |  0.86
Output  | 0.0013841  | 0.0013841  | 0.0013841  |   0.0 |  0.00
Modify  | 0.82615    | 0.82615    | 0.82615    |   0.0 |  2.94
Other   |            | 0.1137     |            |       |  0.40

Nlocal:            864 ave         864 max         864 min
Histogram: 1 0 0 0 0 0 0 0 0 0
Nghost:           2565 ave        2565 max        2565 min
Histogram: 1 0 0 0 0 0 0 0 0 0
Neighs:          57888 ave       57888 max       57888 min
Histogram: 1 0 0 0 0 0 0 0 0 0

Total # of neighbors = 57888
Ave neighs/atom = 67
Neighbor list builds = 0
Dangerous builds = 0
Setting up Verlet run ...
  Unit style    : metal
  Current step  : 0
  Time step     : 0.001
Per MPI rank memory allocation (min/avg/max) = 3.422 | 3.422 | 3.422 Mbytes
   Step          Temp          PotEng         KinEng         Press          Volume           Lx          Density    
         0   527.01558     -2998.9982      58.789381     -322.56062      10473.151      21.878915      8.7056458    
       500   511.09902     -3000.3843      57.013865      2081.7572      10447.713      21.861187      8.7268422    
      1000   507.03526     -3001.398       56.560546      2449.4159      10439.644      21.855558      8.7335873    
      1500   513.13527     -3002.1949      57.241012      2776.7202      10433.433      21.851223      8.738786     
      2000   516.75887     -2995.9823      57.64523       3176.1837      10455.152      21.866375      8.7206325    
      2500   513.57024     -3001.9913      57.289533      1643.6235      10442.424      21.857497      8.7312626    
      3000   489.09319     -3001.2676      54.559082      1386.7177      10445.697      21.859781      8.7285267    
      3500   510.66807     -3000.7802      56.965792     -1127.1394      10470.595      21.877136      8.7077705    
      4000   506.05512     -2999.7362      56.45121      -3567.391       10490.417      21.890932      8.6913176    
      4500   507.04915     -2998.9223      56.562095     -5276.0152      10509.506      21.904202      8.6755311    
      5000   486.50881     -3000.6098      54.27079      -7282.1859      10516.704      21.909202      8.6695929    
      5500   485.04328     -3001.2982      54.107308     -6610.5575      10507.779      21.903002      8.6769569    
      6000   471.85374     -2998.8261      52.635995     -3038.7399      10488.258      21.88943       8.6931061    
      6500   501.59606     -2996.8788      55.953795     -1500.5046      10485.377      21.887425      8.6954953    
      7000   482.4857      -2999.4874      53.822006     -271.94589      10463.334      21.872077      8.713814     
      7500   489.10158     -3001.035       54.560017      701.84298      10452.014      21.864187      8.7232509    
      8000   489.54698     -3001.5762      54.609702      959.25267      10447.845      21.861279      8.7267318    
      8500   506.78049     -2999.0592      56.532126      931.35858      10460.234      21.869917      8.716396     
      9000   503.99211     -2998.7094      56.221078      2210.4148      10451.379      21.863744      8.7237813    
      9500   490.60942     -3002.3642      54.728219      2948.3381      10429.426      21.848425      8.7421441    
     10000   491.73354     -3001.3686      54.853616      5082.8311      10417.466      21.84007       8.7521805    
     10500   497.08754     -2999.8453      55.450863      4104.1268      10431.352      21.84977       8.7405301    
     11000   525.05433     -2998.6593      58.570601      77.398806      10470.703      21.877211      8.7076808    
     11500   528.26929     -3001.1866      58.929234     -3182.2098      10486.232      21.88802       8.694786     
     12000   494.67253     -3000.2052      55.181465     -3161.4656      10487.388      21.888825      8.6938273    
     12500   509.53482     -3000.63        56.839376     -3884.9476      10491.894      21.891959      8.6900935    
     13000   511.47241     -2997.8763      57.055517     -3804.8248      10501.774      21.898829      8.6819182    
     13500   507.26724     -2999.0862      56.586424     -1980.0178      10482.075      21.885128      8.6982338    
     14000   510.02602     -3002.8137      56.89417      -1613.757       10465.098      21.873306      8.7123451    
     14500   492.37128     -3001.6713      54.924757      787.50613      10449.283      21.862283      8.7255306    
     15000   510.08066     -3000.9167      56.900266      1273.0588      10449.828      21.862662      8.7250759    
     15500   522.27073     -2999.9936      58.260086      2275.6488      10446.425      21.860289      8.7279181    
     16000   524.93302     -3000.6164      58.557069      2826.039       10440.893      21.856429      8.7325426    
     16500   491.95028     -3000.2774      54.877794      3708.6923      10432.232      21.850384      8.7397925    
     17000   492.9879      -3002.4839      54.993543      3875.7401      10421.739      21.843056      8.7485923    
     17500   490.96307     -3001.3942      54.767669      2140.0833      10439.321      21.855333      8.7338575    
     18000   486.086       -3000.0311      54.223625      600.47562      10457.358      21.867912      8.7187937    
     18500   514.36542     -2997.0465      57.378237     -1736.4018      10490.715      21.891139      8.6910701    
     19000   522.64222     -3001.3444      58.301527     -3518.5553      10488.049      21.889285      8.6932792    
     19500   490.07628     -3000.1446      54.668747     -2870.8659      10483.984      21.886457      8.6966499    
     20000   497.44144     -2999.8697      55.490341     -2307.0317      10481.443      21.884688      8.6987583    
     20500   533.01429     -3000.6313      59.458546     -4084.8427      10496.485      21.895152      8.6862927    
     21000   506.34995     -2998.9409      56.4841       -2508.7532      10485.912      21.887798      8.6950513    
     21500   497.27109     -3000.4699      55.471338     -366.35702      10463.812      21.87241       8.7134155    
     22000   501.87035     -2999.9622      55.984393      3219.6274      10436.902      21.853644      8.7358817    
     22500   520.04624     -2997.7595      58.01194       4823.702       10434.6        21.852038      8.7378088    
     23000   506.4259      -2999.4277      56.492571      5514.8053      10421.999      21.843238      8.7483737    
     23500   498.15606     -3001.3553      55.570058      2525.3687      10436.967      21.85369       8.7358272    
     24000   502.24441     -3001.2187      56.02612       2133.2252      10441.147      21.856606      8.7323305    
     24500   514.34573     -3002.0467      57.376041      1277.924       10446.058      21.860033      8.7282248    
     25000   512.28843     -2999.7506      57.146545      1315.6299      10455.153      21.866375      8.7206324    
     25500   505.98525     -2998.3491      56.443416      340.89925      10467.373      21.874891      8.7104511    
     26000   506.01454     -3000.9082      56.446683     -1619.8616      10472.982      21.878797      8.7057865    
     26500   501.05555     -3002.0216      55.893501     -3345.1951      10481.251      21.884555      8.6989178    
     27000   504.38782     -3000.2302      56.265221     -4487.3142      10499.554      21.897286      8.6837537    
     27500   487.6144      -2996.1932      54.394121     -4350.0353      10513.206      21.906772      8.6724776    
     28000   475.45634     -2997.7992      53.03787      -5110.8574      10510.617      21.904974      8.6746136    
     28500   505.73382     -2998.7804      56.415368     -4491.9184      10503.484      21.900018      8.6805045    
     29000   484.73093     -2999.2204      54.072465     -1744.7212      10477.482      21.881931      8.7020474    
     29500   488.73497     -2999.8156      54.519122      1958.1491      10447.348      21.860933      8.7271468    
     30000   495.48836     -3000.5981      55.272472      2674.2393      10438.129      21.854501      8.7348549    
Loop time of 55.6545 on 1 procs for 30000 steps with 864 atoms

Performance: 46.573 ns/day, 0.515 hours/ns, 539.040 timesteps/s, 465.731 katom-step/s
96.5% CPU use with 1 MPI tasks x 1 OpenMP threads

MPI task timing breakdown:
Section |  min time  |  avg time  |  max time  |%varavg| %total
---------------------------------------------------------------
Pair    | 53.209     | 53.209     | 53.209     |   0.0 | 95.61
Neigh   | 0          | 0          | 0          |   0.0 |  0.00
Comm    | 0.46024    | 0.46024    | 0.46024    |   0.0 |  0.83
Output  | 0.0015852  | 0.0015852  | 0.0015852  |   0.0 |  0.00
Modify  | 1.7628     | 1.7628     | 1.7628     |   0.0 |  3.17
Other   |            | 0.2212     |            |       |  0.40

Nlocal:            864 ave         864 max         864 min
Histogram: 1 0 0 0 0 0 0 0 0 0
Nghost:           2565 ave        2565 max        2565 min
Histogram: 1 0 0 0 0 0 0 0 0 0
Neighs:          53814 ave       53814 max       53814 min
Histogram: 1 0 0 0 0 0 0 0 0 0

Total # of neighbors = 53814
Ave neighs/atom = 62.284722
Neighbor list builds = 0
Dangerous builds = 0
RESULT T=500 lx=21.854500601142142102 vol=10438.129017579682113 pe_per_atom=-3.4729145202648101787 density=8.7348549238416115514 pressure=2674.2393116132020623
Total wall time: 0:01:23
